# vtk DataFile Version 2.0
Rectilinear grid
ASCII
DATASET RECTILINEAR_GRID
DIMENSIONS 500 94 2
X_COORDINATES 500 float
0.0000000000 3.1972009902 6.3637603880 9.4999718587 12.6061262533 15.6825116352 18.7294133070 21.7471138372 24.7358930859 27.6960282312 30.6277937949 33.5314616675 36.4073011341 39.2555788988 42.0765591095 44.8705033829 47.6376708280 50.3783180709 53.0926992779 55.7810661797 58.4436680941 61.0807519499 63.6925623089 66.2793413894 68.8413290882 71.3787630029 73.8918784540 76.3809085067 78.8460839928 81.2876335314 83.7057835509 86.1007583094 88.4727799159 90.8220683506 93.1488414856 95.4533151048 97.7357029240 99.9962166110 102.2350658048 104.4524581353 106.6485992426 108.8236927959 110.9779405123 113.1115421759 115.2246956560 117.3175969255 119.3904400792 121.4434173518 123.4767191354 125.4905339975 127.4850486985 129.4604482089 131.4169157263 133.3546326927 135.2737788111 137.1745320623 139.0570687214 140.9215633741 142.7681889326 144.5971166524 146.4085161474 148.2025554059 149.9794008065 151.7392171330 153.4821675900 155.2084138180 156.9181159084 158.6114324181 160.2885203846 161.9495353404 163.5946313273 165.2239609107 166.8376751939 168.4359238322 170.0188550465 171.5866156371 173.1393509974 174.6772051275 176.2003206473 177.7088388099 179.2028995146 180.6826413199 182.1482014565 183.5997158399 185.0373190827 186.4611445078 187.8713241600 189.2679888189 190.6512680105 192.0212900196 193.3781819014 194.7220694934 196.0530774273 197.3713291401 198.6769468860 199.9700517473 201.2507636461 202.5192013550 203.7754825084 205.0197236133 206.2520400601 207.4725461332 208.6813550219 209.8785788306 211.0643285893 212.2387142639 213.4018447665 214.5538279653 215.6947706947 216.8247787652 217.9439569734 219.0524091113 220.1502379763 221.2375453806 222.3144321606 223.3809981864 224.4373423707 225.4835626785 226.5197561359 227.5460188389 228.5624459628 229.5691317705 230.5661696216 231.5536519811 232.5316704276 233.5003156622 234.4596775165 235.4098449613 236.3509061149 237.2829482508 238.2060578061 239.1203203898 240.0258207900 240.9226429826 241.8108701383 242.6905846311 243.5618680453 244.4248011833 245.2794640732 246.1259359760 246.9642953933 247.7946200740 248.6169870221 249.4314725036 250.2381520536 251.0371004831 251.8283918862 252.6120996471 253.3882964464 254.1570542683 254.9184444070 255.6725374736 256.4194034023 257.1591114572 257.8917302384 258.6173276887 259.3359710997 260.0477271181 260.7526617519 261.4508403763 262.1423277401 262.8271879717 263.5054845846 264.1772804837 264.8426379713 265.5016187521 266.1542839398 266.8006940623 267.4409090675 268.0749883284 268.7029906495 269.3249742713 269.9409968764 270.5511155945 271.1553870076 271.7538671556 272.3466115414 272.9336751358 273.5151123829 274.0909772048 274.6613230070 275.2262026832 275.7856686201 276.3397727022 276.8885663170 277.4321003593 277.9704252363 278.5035908720 279.0316467118 279.5546417276 280.0726244217 280.5856428314 281.0937445340 281.5969766506 282.0953858507 282.5890183565 283.0779199473 283.5621359637 284.0417113117 284.5166904667 284.9871174783 285.4530359736 285.9144891617 286.3715198376 286.8241703860 287.2724827856 287.7164986128 288.1562590453 288.5918048663 289.0231764682 289.4504138562 289.8735566522 290.2926440980 290.7077150599 291.1188080313 291.5259611367 291.9292121353 292.3285984246 292.7241570434 293.1159246756 293.5039376536 293.8882319616 294.2688432389 294.6458067831 295.0191575537 295.3889301752 295.7551589400 296.1178778120 296.4771204297 296.8329201091 297.1853098469 297.5343223235 297.8799899062 298.2223446520 298.5614183109 298.8972423284 299.2298478485 299.5592657171 299.8855264842 300.2086604070 300.5286974530 300.8456673021 301.1595993500 301.4705227107 301.7784662190 302.0834584336 302.3855276392 302.6847018495 302.9810088100 303.2744760000 303.2775240000 303.5709911900 303.8672981505 304.1664723608 304.4685415664 304.7735337810 305.0814772893 305.3924006500 305.7063326979 306.0233025470 306.3433395930 306.6664735158 306.9927342829 307.3221521515 307.6547576716 307.9905816891 308.3296553480 308.6720100938 309.0176776765 309.3666901531 309.7190798909 310.0748795703 310.4341221880 310.7968410600 311.1630698248 311.5328424463 311.9061932169 312.2831567611 312.6637680384 313.0480623464 313.4360753244 313.8278429566 314.2234015754 314.6227878647 315.0260388633 315.4331919687 315.8442849401 316.2593559020 316.6784433478 317.1015861438 317.5288235318 317.9601951337 318.3957409547 318.8355013872 319.2795172144 319.7278296140 320.1804801624 320.6375108383 321.0989640264 321.5648825217 322.0353095333 322.5102886883 322.9898640363 323.4740800527 323.9629816435 324.4566141493 324.9550233494 325.4582554660 325.9663571686 326.4793755783 326.9973582724 327.5203532882 328.0484091280 328.5815747637 329.1198996407 329.6634336830 330.2122272978 330.7663313799 331.3257973168 331.8906769930 332.4610227952 333.0368876171 333.6183248642 334.2053884586 334.7981328444 335.3966129924 336.0008844055 336.6110031236 337.2270257287 337.8490093505 338.4770116716 339.1110909325 339.7513059377 340.3977160602 341.0503812479 341.7093620287 342.3747195163 343.0465154154 343.7248120283 344.4096722599 345.1011596237 345.7993382481 346.5042728819 347.2160289003 347.9346723113 348.6602697616 349.3928885428 350.1325965977 350.8794625264 351.6335555930 352.3949457317 353.1637035536 353.9399003529 354.7236081138 355.5148995169 356.3138479464 357.1205274964 357.9350129779 358.7573799260 359.5877046067 360.4260640240 361.2725359268 362.1271988167 362.9901319547 363.8614153689 364.7411298617 365.6293570174 366.5261792100 367.4316796102 368.3459421939 369.2690517492 370.2010938851 371.1421550387 372.0923224835 373.0516843378 374.0203295724 374.9983480189 375.9858303784 376.9828682295 377.9895540372 379.0059811611 380.0322438641 381.0684373215 382.1146576293 383.1710018136 384.2375678394 385.3144546194 386.4017620237 387.4995908887 388.6080430266 389.7272212348 390.8572293053 391.9981720347 393.1501552335 394.3132857361 395.4876714107 396.6734211694 397.8706449781 399.0794538668 400.2999599399 401.5322763867 402.7765174916 404.0327986450 405.3012363539 406.5819482527 407.8750531140 409.1806708599 410.4989225727 411.8299305066 413.1738180986 414.5307099804 415.9007319895 417.2840111811 418.6806758400 420.0908554922 421.5146809173 422.9522841601 424.4037985435 425.8693586801 427.3491004854 428.8431611901 430.3516793527 431.8747948725 433.4126490026 434.9653843629 436.5331449535 438.1160761678 439.7143248061 441.3280390893 442.9573686727 444.6024646596 446.2634796154 447.9405675819 449.6338840916 451.3435861820 453.0698324100 454.8127828670 456.5725991935 458.3494445941 460.1434838526 461.9548833476 463.7838110674 465.6304366259 467.4949312786 469.3774679377 471.2782211889 473.1973673073 475.1350842737 477.0915517911 479.0669513015 481.0614660025 483.0752808646 485.1085826482 487.1615599208 489.2344030745 491.3273043440 493.4404578241 495.5740594877 497.7283072041 499.9034007574 502.0995418647 504.3169341952 506.5557833890 508.8162970760 511.0986848952 513.4031585144 515.7299316494 518.0792200841 520.4512416906 522.8462164491 525.2643664686 527.7059160072 530.1710914933 532.6601215460 535.1732369971 537.7106709118 540.2726586106 542.8594376911 545.4712480501 548.1083319059 550.7709338203 553.4593007221 556.1736819291 558.9143291720 561.6814966171 564.4754408905 567.2964211012 570.1446988659 573.0205383325 575.9242062051 578.8559717688 581.8161069141 584.8048861628 587.8225866930 590.8694883648 593.9458737467 597.0520281413 600.1882396120 603.3547990098 606.5520000000 
Y_COORDINATES 94 float
0.0000000000 6.5532000000 13.1064000000 19.6596000000 26.2128000000 32.7660000000 39.3192000000 45.8724000000 52.4256000000 58.9788000000 65.5320000000 72.0852000000 78.6384000000 85.1916000000 91.7448000000 98.2980000000 104.8512000000 111.4044000000 117.9576000000 124.5108000000 131.0640000000 137.6172000000 144.1704000000 150.7236000000 157.2768000000 163.8300000000 170.3832000000 176.9364000000 183.4896000000 190.0428000000 196.5960000000 203.0984000000 209.6008000000 216.1032000000 222.6056000000 229.1080000000 235.2040000000 241.7064000000 248.2088000000 254.7112000000 261.2136000000 267.7160000000 274.2184000000 280.7208000000 287.2232000000 293.7256000000 300.2280000000 306.3240000000 312.8264000000 319.3288000000 325.8312000000 332.3336000000 338.8360000000 345.3384000000 351.8408000000 358.3432000000 364.8456000000 371.3480000000 377.4440000000 383.9464000000 390.4488000000 396.9512000000 403.4536000000 409.9560000000 416.5092000000 423.0624000000 429.6156000000 436.1688000000 442.7220000000 449.2752000000 455.8284000000 462.3816000000 468.9348000000 475.4880000000 482.0412000000 488.5944000000 495.1476000000 501.7008000000 508.2540000000 514.8072000000 521.3604000000 527.9136000000 534.4668000000 541.0200000000 547.5732000000 554.1264000000 560.6796000000 567.2328000000 573.7860000000 580.3392000000 586.8924000000 593.4456000000 599.9988000000 606.5520000000 
Z_COORDINATES 2 float
0.0000000000 60.6552000000 
CELL_DATA 46407
SCALARS Pressure float
LOOKUP_TABLE default
34.2118231996 34.2107405698 34.2085967684 34.2054075534 34.2011942618 34.1964091662 34.1910144570 34.1849968904 34.1783565544 34.1711029639 34.1632528305 34.1548288882 34.1458595019 34.1363697612 34.1263825061 34.1159189516 34.1049991070 34.0936420168 34.0818658472 34.0696879812 34.0571251088 34.0441933061 34.0309081041 34.0172845478 34.0033372468 33.9890804189 33.9745279270 33.9596933110 33.9445898149 33.9292304094 33.9136278110 33.8977944985 33.8817427262 33.8654845352 33.8490317622 33.8323960474 33.8155888395 33.7986214011 33.7815048117 33.7642499698 33.7468675952 33.7293682297 33.7117622369 33.6940598028 33.6762709348 33.6584054611 33.6404730293 33.6224831052 33.6044449714 33.5863677255 33.5682602788 33.5501313547 33.5319894866 33.5138430168 33.4957000952 33.4775686773 33.4594565233 33.4413711970 33.4233200646 33.4053102942 33.3873488547 33.3694425153 33.3515978458 33.3338212157 33.3161187943 33.2984965516 33.2809602578 33.2635154844 33.2461676050 33.2289217959 33.2117830373 33.1947561149 33.1778456210 33.1610559562 33.1443913312 33.1278557687 33.1114531055 33.0951869946 33.0790609077 33.0630781375 33.0472418002 33.0315548385 33.0160200242 33.0006399608 32.9854170871 32.9703536797 32.9554518564 32.9407135794 32.9261406583 32.9117347538 32.8974973809 32.8834299123 32.8695335816 32.8558094873 32.8422585959 32.8288817455 32.8156796494 32.8026528996 32.7898019704 32.7771272216 32.7646289027 32.7523071557 32.7401620190 32.7281934310 32.7164012330 32.7047851733 32.6933449101 32.6820800150 32.6709899765 32.6600742029 32.6493320260 32.6387627038 32.6283654240 32.6181393068 32.6080834080 32.5981967222 32.5884781854 32.5789266779 32.5695410273 32.5603200110 32.5512623589 32.5423667562 32.5336318455 32.5250562301 32.5166384755 32.5083771123 32.5002706386 32.4923175216 32.4845162007 32.4768650886 32.4693625741 32.4620070243 32.4547967867 32.4477301906 32.4408055470 32.4340211477 32.4273752636 32.4208662174 32.4144923770 32.4082480042 32.4021316264 32.3961416984 32.3902766480 32.3845348807 32.3789147827 32.3734147250 32.3680330661 32.3627681546 32.3576183319 32.3525819338 32.3476572935 32.3428427422 32.3381366120 32.3335372362 32.3290429516 32.3246520994 32.3203630266 32.3161740865 32.3120836407 32.3080900592 32.3041917218 32.3003870183 32.2966743499 32.2930521285 32.2895187818 32.2860727532 32.2827125015 32.2794365015 32.2762432437 32.2731312350 32.2700989983 32.2671450733 32.2642680159 32.2614663992 32.2587388127 32.2560838632 32.2535001744 32.2509863875 32.2485411606 32.2461631695 32.2438511070 32.2416036837 32.2394196277 32.2372976842 32.2352366162 32.2332352044 32.2312922464 32.2294065579 32.2275769715 32.2258023376 32.2240815235 32.2224134141 32.2207969112 32.2192309339 32.2177144183 32.2162463171 32.2148256001 32.2134512537 32.2121222807 32.2108377007 32.2095965492 32.2083978780 32.2072407550 32.2061242640 32.2050475044 32.2040095912 32.2030096549 32.2020468413 32.2011203110 32.2002292399 32.1993728184 32.1985502517 32.1977607593 32.1970035748 32.1962779462 32.1955831351 32.1949184170 32.1942830809 32.1936764290 32.1930977769 32.1925464531 32.1920217989 32.1915231682 32.1910499275 32.1906014554 32.1901771428 32.1897763923 32.1893986184 32.1890432470 32.1887097156 32.1883974728 32.1881059781 32.1878347020 32.1875831257 32.1873507409 32.1871370496 32.1869415639 32.1867638061 32.1866033082 32.1864596119 32.1863322683 32.1862208381 32.1861248910 32.1860440057 32.1859777698 32.1859257799 32.1858876407 32.1858629656 32.1858513761 32.1858519477 32.1858525857 32.1858665810 32.1858936852 32.1859342769 32.1859887428 32.1860574783 32.1861408872 32.1862393819 32.1863533839 32.1864833236 32.1866296406 32.1867927838 32.1869732118 32.1871713926 32.1873878041 32.1876229345 32.1878772817 32.1881513543 32.1884456712 32.1887607621 32.1890971676 32.1894554391 32.1898361394 32.1902398426 32.1906671344 32.1911186123 32.1915948854 32.1920965754 32.1926243158 32.1931787527 32.1937605451 32.1943703644 32.1950088952 32.1956768353 32.1963748957 32.1971038011 32.1978642899 32.1986571142 32.1994830403 32.2003428487 32.2012373345 32.2021673070 32.2031335905 32.2041370243 32.2051784626 32.2062587750 32.2073788462 32.2085395770 32.2097418833 32.2109866974 32.2122749674 32.2136076573 32.2149857479 32.2164102360 32.2178821352 32.2194024755 32.2209723040 32.2225926844 32.2242646975 32.2259894412 32.2277680305 32.2296015977 32.2314912923 32.2334382812 32.2354437487 32.2375088965 32.2396349439 32.2418231275 32.2440747016 32.2463909377 32.2487731249 32.2512225698 32.2537405963 32.2563285457 32.2589877763 32.2617196638 32.2645256010 32.2674069976 32.2703652801 32.2734018917 32.2765182923 32.2797159580 32.2829963814 32.2863610711 32.2898115516 32.2933493631 32.2969760616 32.3006932184 32.3045024204 32.3084052659 32.3124033638 32.3164983333 32.3206918033 32.3249854114 32.3293808027 32.3338796294 32.3384835489 32.3431942233 32.3480133177 32.3529424990 32.3579834344 32.3631377895 32.3684072268 32.3737934037 32.3792979698 32.3849225652 32.3906688174 32.3965383382 32.4025327207 32.4086535353 32.4149023254 32.4212805620 32.4277939807 32.4344442118 32.4412329306 32.4481618643 32.4552327189 32.4624471815 32.4698069206 32.4773135863 32.4849688097 32.4927741996 32.5007313408 32.5088417919 32.5171070833 32.5255287144 32.5341081523 32.5428468290 32.5517461389 32.5608074366 32.5700320347 32.5794212006 32.5889761544 32.5986980659 32.6085880522 32.6186471748 32.6288764364 32.6392767786 32.6498490786 32.6605941460 32.6715127203 32.6826054671 32.6938729755 32.7053157544 32.7169342296 32.7287287403 32.7406995359 32.7528467724 32.7651705091 32.7776707053 32.7903472163 32.8031997907 32.8162280662 32.8294315664 32.8428096973 32.8563617434 32.8700868648 32.8839840930 32.8980523279 32.9122903341 32.9266967372 32.9412700211 32.9560085236 32.9709104338 32.9859737885 33.0011964690 33.0165761978 33.0321105356 33.0477968783 33.0636324538 33.0796143193 33.0957393586 33.1120042790 33.1284056095 33.1449396974 33.1616027069 33.1783906160 33.1952992153 33.2123241055 33.2294606959 33.2467042025 33.2640496472 33.2814918556 33.2990254568 33.3166448816 33.3343443627 33.3521179330 33.3699594263 33.3878624763 33.4058205170 33.4238267824 33.4418743075 33.4599559281 33.4780642820 33.4961918093 33.5143307539 33.5324731643 33.5506108949 33.5687356075 33.5868387725 33.6049116705 33.6229453940 33.6409308488 33.6588587557 33.6767196520 33.6945038926 33.7122016518 33.7298029239 33.7472975245 33.7646750905 33.7819250804 33.7990367741 33.8159992718 33.8328014921 33.8494321699 33.8658798530 33.8821328972 33.8981794609 33.9140074975 33.9296047468 33.9449587236 33.9600567048 33.9748857132 33.9894324989 34.0036835169 34.0176249003 34.0312424295 34.0445214955 34.0574470573 34.0700035916 34.0821750345 34.0939447136 34.1052952688 34.1162085622 34.1266655833 34.1366463619 34.1461297265 34.1550928847 34.1635107981 34.1713551569 34.1786032822 34.1852385154 34.1912513906 34.1966418635 34.2014232126 34.2056332375 34.2088199426 34.2109620373 34.2120437989 34.2085024516 34.2074220757 34.2052654369 34.2019990660 34.1980464314 34.1934110713 34.1881006039 34.1821257654 34.1755011486 34.1682453635 34.1603809822 34.1519343713 34.1429353300 34.1334096180 34.1233805036 34.1128695436 34.1018970400 34.0904822848 34.0786436601 34.0663987438 34.0537644053 34.0407568886 34.0273918827 34.0136845818 33.9996497374 33.9853017022 33.9706544682 33.9557216991 33.9405167573 33.9250527277 33.9093424372 33.8933984712 33.8772331875 33.8608587276 33.8442870266 33.8275298198 33.8105986499 33.7935048711 33.7762596526 33.7588739817 33.7413586652 33.7237243304 33.7059814257 33.6881402207 33.6702108053 33.6522030892 33.6341268007 33.6159914855 33.5978065053 33.5795810360 33.5613240665 33.5430443967 33.5247506364 33.5064512031 33.4881543211 33.4698680200 33.4516001330 33.4333582962 33.4151499474 33.3969823255 33.3788624692 33.3607972172 33.3427932073 33.3248568763 33.3069944604 33.2892119950 33.2715153150 33.2539100557 33.2364016534 33.2189953461 33.2016961748 33.1845089848 33.1674384270 33.1504889595 33.1336648495 33.1169701748 33.1004088265 33.0839845104 33.0677007500 33.0515608886 33.0355680917 33.0197253502 33.0040354826 32.9885011382 32.9731248001 32.9579087879 32.9428552614 32.9279662230 32.9132435218 32.8986888564 32.8843037783 32.8700896954 32.8560478756 32.8421794499 32.8284854161 32.8149666425 32.8016238711 32.7884577214 32.7754686937 32.7626571729 32.7500234319 32.7375676352 32.7252898422 32.7131900111 32.7012680020 32.6895235807 32.6779564217 32.6665661120 32.6553521542 32.6443139698 32.6334509027 32.6227622221 32.6122471257 32.6019047430 32.5917341382 32.5817343130 32.5719042099 32.5622427148 32.5527486600 32.5434208267 32.5342579481 32.5252587113 32.5164217604 32.5077456984 32.4992290903 32.4908704654 32.4826683211 32.4746211239 32.4667273099 32.4589852832 32.4513934140 32.4439500351 32.4366535283 32.4295023156 32.4224948560 32.4156296460 32.4089008385 32.4023070211 32.3958466406 32.3895180598 32.3833196283 32.3772496841 32.3713065552 32.3654885604 32.3597940110 32.3542212117 32.3487684624 32.3434340594 32.3382162969 32.3331134682 32.3281238673 32.3232457904 32.3184775362 32.3138174078 32.3092637132 32.3048147660 32.3004688865 32.2962244019 32.2920796471 32.2880329695 32.2840827295 32.2802273000 32.2764650675 32.2727944320 32.2692138078 32.2657216236 32.2623163230 32.2589963650 32.2557602240 32.2526063903 32.2495333702 32.2465396864 32.2436238783 32.2407845016 32.2380201293 32.2353293512 32.2327107743 32.2301630231 32.2276847392 32.2252745819 32.2229312280 32.2206533717 32.2184397252 32.2162890181 32.2141999977 32.2121714291 32.2102020949 32.2082907956 32.2064363490 32.2046375907 32.2028933736 32.2012025683 32.1995640625 32.1979767613 32.1964395871 32.1949514791 32.1935113938 32.1921183043 32.1907712007 32.1894690896 32.1882109939 32.1869959533 32.1858230233 32.1846912756 32.1835997979 32.1825476936 32.1815340817 32.1805580966 32.1796188881 32.1787156209 32.1778474749 32.1770136446 32.1762133390 32.1754457818 32.1747102108 32.1740058777 32.1733320484 32.1726880023 32.1720730323 32.1714864448 32.1709275593 32.1703957081 32.1698902365 32.1694105025 32.1689558762 32.1685257402 32.1681194892 32.1677365296 32.1673762798 32.1670381693 32.1667216393 32.1664261422 32.1661511411 32.1658961101 32.1656605341 32.1654439082 32.1652457380 32.1650655391 32.1649028372 32.1647571677 32.1646280756 32.1645151155 32.1644178513 32.1643358559 32.1642687113 32.1642160084 32.1641773467 32.1641523341 32.1641405871 32.1641411674 32.1641418151 32.1641560045 32.1641834831 32.1642246345 32.1642798510 32.1643495332 32.1644340905 32.1645339410 32.1646495119 32.1647812396 32.1649295695 32.1650949570 32.1652778665 32.1654787728 32.1656981602 32.1659365234 32.1661943673 32.1664722073 32.1667705695 32.1670899906 32.1674310187 32.1677942126 32.1681801429 32.1685893913 32.1690225515 32.1694802290 32.1699630414 32.1704716184 32.1710066024 32.1715686481 32.1721584232 32.1727766084 32.1734238973 32.1741009971 32.1748086284 32.1755475255 32.1763184366 32.1771221240 32.1779593641 32.1788309479 32.1797376808 32.1806803831 32.1816598899 32.1826770515 32.1837327335 32.1848278168 32.1859631980 32.1871397895 32.1883585193 32.1896203318 32.1909261875 32.1922770631 32.1936739520 32.1951178641 32.1966098259 32.1981508810 32.1997420899 32.2013845300 32.2030792961 32.2048275002 32.2066302715 32.2084887567 32.2104041202 32.2123775437 32.2144102265 32.2165033857 32.2186582557 32.2208760890 32.2231581554 32.2255057426 32.2279201556 32.2304027174 32.2329547682 32.2355776657 32.2382727851 32.2410415187 32.2438852761 32.2468054839 32.2498035855 32.2528810409 32.2560393269 32.2592799362 32.2626043780 32.2660141768 32.2695108731 32.2730960222 32.2767711946 32.2805379752 32.2843979628 32.2883527703 32.2924040233 32.2965533608 32.3008024339 32.3051529069 32.3096064512 32.3141647454 32.3188294745 32.3236023294 32.3284850058 32.3334792032 32.3385866244 32.3438089739 32.3491479567 32.3546052772 32.3601826374 32.3658817361 32.3717042666 32.3776519162 32.3837263641 32.3899292808 32.3962623263 32.4027271492 32.4093253847 32.4160585842 32.4229281582 32.4299399512 32.4370954646 32.4443962372 32.4518438450 32.4594399039 32.4671860789 32.4750839975 32.4831352532 32.4913414077 32.4997039920 32.5082245064 32.5169044190 32.5257451625 32.5347481311 32.5439146785 32.5532461148 32.5627437044 32.5724086634 32.5822421568 32.5922452963 32.6024191366 32.6127646734 32.6232828398 32.6339745037 32.6448404647 32.6558814510 32.6670981161 32.6784910357 32.6900607047 32.7018075336 32.7137318451 32.7258338711 32.7381137488 32.7505715178 32.7632071160 32.7760203766 32.7890110245 32.8021786725 32.8155228180 32.8290428396 32.8427379930 32.8566074081 32.8706500853 32.8848648916 32.8992505577 32.9138056740 32.9285286875 32.9434178983 32.9584714563 32.9736873578 32.9890634422 33.0045973890 33.0202867147 33.0361287694 33.0521207342 33.0682596184 33.0845422562 33.1009653047 33.1175252409 33.1342183594 33.1510407701 33.1679883960 33.1850569713 33.2022420393 33.2195389506 33.2369428619 33.2544487341 33.2720513314 33.2897452200 33.3075247672 33.3253841410 33.3433173089 33.3613180381 33.3793798950 33.3974962454 33.4156602543 33.4338648868 33.4521029079 33.4703668840 33.4886491831 33.5069419759 33.5252372374 33.5435267473 33.5618020922 33.5800546666 33.5982756745 33.6164561309 33.6345868635 33.6526585141 33.6706615403 33.6885862165 33.7064226355 33.7241607093 33.7417901701 33.7593005704 33.7766812832 33.7939215016 33.8110102374 33.8279363196 33.8446883919 33.8612549085 33.8776241301 33.8937841173 33.9097227234 33.9254275849 33.9408861104 33.9560854667 33.9710125628 33.9856540303 33.9999962006 34.0140250780 34.0277263078 34.0410851389 34.0540863808 34.0667143520 34.0789528207 34.0907849347 34.1021931389 34.1131590797 34.1236634995 34.1336861355 34.1432054744 34.1521982960 34.1606388913 34.1684975166 34.1757478615 34.1823674084 34.1883376003 34.1936438933 34.1982755964 34.2022251306 34.2054889695 34.2076439078 34.2087234235 34.2016965533 34.2006969318 34.1987332894 34.1958551618 34.1921453153 34.1876564275 34.1824259683 34.1764844455 34.1698599014 34.1625804687 34.1546758713 34.1461783454 34.1371165202 34.1275162375 34.1174012212 34.1067935846 34.0957141629 34.0841826890 34.0722179391 34.0598378544 34.0470596433 34.0338998687 34.0203745206 34.0064990794 33.9922885689 33.9777576020 33.9629204201 33.9477909262 33.9323827132 33.9167090886 33.9007830944 33.8846175247 33.8682249402 33.8516176799 33.8348078714 33.8178074388 33.8006281092 33.7832814177 33.7657787118 33.7481311536 33.7303497223 33.7124452154 33.6944282491 33.6763092587 33.6580984982 33.6398060392 33.6214417708 33.6030153973 33.5845364377 33.5660142240 33.5474578993 33.5288764165 33.5102785369 33.4916728281 33.4730676632 33.4544712188 33.4358914741 33.4173362094 33.3988130054 33.3803292420 33.3618920978 33.3435085493 33.3251853707 33.3069291336 33.2887462070 33.2706427573 33.2526247488 33.2346979441 33.2168679049 33.1991399926 33.1815193698 33.1640110010 33.1466196543 33.1293499030 33.1122061270 33.0951925149 33.0783130659 33.0615715921 33.0449717206 33.0285168960 33.0122103827 32.9960552681 32.9800544647 32.9642107133 32.9485265861 32.9330044891 32.9176466660 32.9024552008 32.8874320212 32.8725789022 32.8578974689 32.8433892004 32.8290554328 32.8148973632 32.8009160527 32.7871124301 32.7734872955 32.7600413238 32.7467750681 32.7336889636 32.7207833305 32.7080583785 32.6955142094 32.6831508213 32.6709681117 32.6589658814 32.6471438376 32.6355015978 32.6240386928 32.6127545705 32.6016485993 32.5907200711 32.5799682046 32.5693921483 32.5589909832 32.5487637258 32.5387093312 32.5288266957 32.5191146617 32.5095720211 32.5001975183 32.4909898503 32.4819476659 32.4730695630 32.4643540853 32.4557997165 32.4474049870 32.4391684622 32.4310887377 32.4231644396 32.4153942292 32.4077720015 32.4002964996 32.3929663002 32.3857798783 32.3787356180 32.3718318237 32.3650667893 32.3584387998 32.3519461310 32.3455870501 32.3393598170 32.3332626859 32.3272939052 32.3214517194 32.3157343696 32.3101400942 32.3046671299 32.2993137122 32.2940780758 32.2889584618 32.2839531175 32.2790602966 32.2742782597 32.2696052752 32.2650396195 32.2605795778 32.2562234449 32.2519695261 32.2478161374 32.2437616067 32.2398042743 32.2359424934 32.2321746306 32.2284990663 32.2249141955 32.2214184279 32.2180101883 32.2146879171 32.2114500706 32.2082951210 32.2052215572 32.2022278846 32.1993126253 32.1964743188 32.1937115217 32.1910228077 32.1884067685 32.1858620132 32.1833871685 32.1809808793 32.1786418079 32.1763686351 32.1741600591 32.1720147966 32.1699315819 32.1679091676 32.1659463242 32.1640418401 32.1621945215 32.1604031928 32.1586666959 32.1569838906 32.1553536542 32.1537748816 32.1522464852 32.1507673949 32.1493365574 32.1479529370 32.1466155147 32.1453232885 32.1440752729 32.1428704994 32.1417080154 32.1405868851 32.1395061884 32.1384650215 32.1374624961 32.1364977398 32.1355698954 32.1346781213 32.1338215908 32.1329994922 32.1322110286 32.1314554176 32.1307318913 32.1300396961 32.1293780921 32.1287463537 32.1281437686 32.1275696382 32.1270232772 32.1265040133 32.1260111872 32.1255441524 32.1251022748 32.1246849327 32.1242915169 32.1239214297 32.1235740857 32.1232489109 32.1229453426 32.1226628298 32.1224008323 32.1221588208 32.1219362771 32.1217326930 32.1215475713 32.1213804246 32.1212307758 32.1210981575 32.1209821122 32.1208821918 32.1207979577 32.1207289805 32.1206748398 32.1206351242 32.1206094311 32.1205973663 32.1205979642 32.1205986313 32.1206132123 32.1206414459 32.1206837264 32.1207404565 32.1208120480 32.1208989213 32.1210015061 32.1211202411 32.1212555744 32.1214079640 32.1215778772 32.1217657914 32.1219721939 32.1221975825 32.1224424652 32.1227073605 32.1229927977 32.1232993173 32.1236274705 32.1239778199 32.1243509397 32.1247474156 32.1251678452 32.1256128380 32.1260830158 32.1265790126 32.1271014753 32.1276510630 32.1282284483 32.1288343166 32.1294693665 32.1301343103 32.1308298739 32.1315567971 32.1323158335 32.1331077512 32.1339333325 32.1347933745 32.1356886887 32.1366201020 32.1375884559 32.1385946077 32.1396394297 32.1407238101 32.1418486529 32.1430148778 32.1442234209 32.1454752345 32.1467712872 32.1481125642 32.1495000675 32.1509348159 32.1524178452 32.1539502082 32.1555329750 32.1571672332 32.1588540874 32.1605946602 32.1623900916 32.1642415393 32.1661501789 32.1681172037 32.1701438250 32.1722312720 32.1743807919 32.1765936497 32.1788711287 32.1812145300 32.1836251725 32.1861043933 32.1886535472 32.1912740069 32.1939671626 32.1967344224 32.1995772117 32.2024969733 32.2054951673 32.2085732707 32.2117327774 32.2149751979 32.2183020591 32.2217149040 32.2252152913 32.2288047954 32.2324850056 32.2362575261 32.2401239755 32.2440859860 32.2481452036 32.2523032869 32.2565619070 32.2609227463 32.2653874988 32.2699578682 32.2746355681 32.2794223208 32.2843198566 32.2893299134 32.2944542361 32.2996945760 32.3050526904 32.3105303431 32.3161292970 32.3218513136 32.3276981530 32.3336715723 32.3397733253 32.3460051616 32.3523688253 32.3588660546 32.3654985802 32.3722681245 32.3791764003 32.3862251116 32.3934159520 32.4007505354 32.4082303843 32.4158569198 32.4236313971 32.4315599176 32.4396438181 32.4478844699 32.4562832751 32.4648416658 32.4735611090 32.4824431185 32.4914891482 32.5007005973 32.5100788146 32.5196251004 32.5293407077 32.5392268416 32.5492846575 32.5595152559 32.5699196793 32.5804989084 32.5912538594 32.6021853811 32.6132942521 32.6245811777 32.6360467868 32.6476916290 32.6595161705 32.6715207914 32.6837057817 32.6960713382 32.7086175607 32.7213444486 32.7342518976 32.7473396958 32.7606075204 32.7740549340 32.7876813813 32.8014861852 32.8154685437 32.8296275258 32.8439620687 32.8584709736 32.8731529025 32.8880063750 32.9030297643 32.9182212943 32.9335790361 32.9491009046 32.9647846554 32.9806278815 32.9966280103 33.0127823007 33.0290878396 33.0455415400 33.0621401374 33.0788801875 33.0957580637 33.1127699547 33.1299118623 33.1471795988 33.1645687856 33.1820748511 33.1996930290 33.2174183565 33.2352456733 33.2531696204 33.2711846387 33.2892849683 33.3074646480 33.3257175144 33.3440372021 33.3624171429 33.3808505664 33.3993304998 33.4178497686 33.4364009971 33.4549766087 33.4735688275 33.4921696787 33.5107709901 33.5293643930 33.5479413241 33.5664930266 33.5850105517 33.6034847604 33.6219063247 33.6402657295 33.6585532735 33.6767590711 33.6948730533 33.7128849685 33.7307843834 33.7485606830 33.7662030707 33.7837005675 33.8010420108 33.8182160521 33.8352111545 33.8520155882 33.8686174260 33.8850045365 33.9011645760 33.9170849789 33.9327529457 33.9481554287 33.9632791149 33.9781104060 33.9926353943 34.0068398350 34.0207091134 34.0342282058 34.0473816356 34.0601534195 34.0725270066 34.0844852053 34.0960100975 34.1070829356 34.1176840209 34.1277925576 34.1373864763 34.1464421006 34.1549336393 34.1628325167 34.1701065537 34.1767260830 34.1826630276 34.1878893996 34.19237