# vtk DataFile Version 2.0
Rectilinear grid
ASCII
DATASET RECTILINEAR_GRID
DIMENSIONS 500 62 2
X_COORDINATES 500 float
0.0000000000 3.1972009902 6.3637603880 9.4999718587 12.6061262533 15.6825116352 18.7294133070 21.7471138372 24.7358930859 27.6960282312 30.6277937949 33.5314616675 36.4073011341 39.2555788988 42.0765591095 44.8705033829 47.6376708280 50.3783180709 53.0926992779 55.7810661797 58.4436680941 61.0807519499 63.6925623089 66.2793413894 68.8413290882 71.3787630029 73.8918784540 76.3809085067 78.8460839928 81.2876335314 83.7057835509 86.1007583094 88.4727799159 90.8220683506 93.1488414856 95.4533151048 97.7357029240 99.9962166110 102.2350658048 104.4524581353 106.6485992426 108.8236927959 110.9779405123 113.1115421759 115.2246956560 117.3175969255 119.3904400792 121.4434173518 123.4767191354 125.4905339975 127.4850486985 129.4604482089 131.4169157263 133.3546326927 135.2737788111 137.1745320623 139.0570687214 140.9215633741 142.7681889326 144.5971166524 146.4085161474 148.2025554059 149.9794008065 151.7392171330 153.4821675900 155.2084138180 156.9181159084 158.6114324181 160.2885203846 161.9495353404 163.5946313273 165.2239609107 166.8376751939 168.4359238322 170.0188550465 171.5866156371 173.1393509974 174.6772051275 176.2003206473 177.7088388099 179.2028995146 180.6826413199 182.1482014565 183.5997158399 185.0373190827 186.4611445078 187.8713241600 189.2679888189 190.6512680105 192.0212900196 193.3781819014 194.7220694934 196.0530774273 197.3713291401 198.6769468860 199.9700517473 201.2507636461 202.5192013550 203.7754825084 205.0197236133 206.2520400601 207.4725461332 208.6813550219 209.8785788306 211.0643285893 212.2387142639 213.4018447665 214.5538279653 215.6947706947 216.8247787652 217.9439569734 219.0524091113 220.1502379763 221.2375453806 222.3144321606 223.3809981864 224.4373423707 225.4835626785 226.5197561359 227.5460188389 228.5624459628 229.5691317705 230.5661696216 231.5536519811 232.5316704276 233.5003156622 234.4596775165 235.4098449613 236.3509061149 237.2829482508 238.2060578061 239.1203203898 240.0258207900 240.9226429826 241.8108701383 242.6905846311 243.5618680453 244.4248011833 245.2794640732 246.1259359760 246.9642953933 247.7946200740 248.6169870221 249.4314725036 250.2381520536 251.0371004831 251.8283918862 252.6120996471 253.3882964464 254.1570542683 254.9184444070 255.6725374736 256.4194034023 257.1591114572 257.8917302384 258.6173276887 259.3359710997 260.0477271181 260.7526617519 261.4508403763 262.1423277401 262.8271879717 263.5054845846 264.1772804837 264.8426379713 265.5016187521 266.1542839398 266.8006940623 267.4409090675 268.0749883284 268.7029906495 269.3249742713 269.9409968764 270.5511155945 271.1553870076 271.7538671556 272.3466115414 272.9336751358 273.5151123829 274.0909772048 274.6613230070 275.2262026832 275.7856686201 276.3397727022 276.8885663170 277.4321003593 277.9704252363 278.5035908720 279.0316467118 279.5546417276 280.0726244217 280.5856428314 281.0937445340 281.5969766506 282.0953858507 282.5890183565 283.0779199473 283.5621359637 284.0417113117 284.5166904667 284.9871174783 285.4530359736 285.9144891617 286.3715198376 286.8241703860 287.2724827856 287.7164986128 288.1562590453 288.5918048663 289.0231764682 289.4504138562 289.8735566522 290.2926440980 290.7077150599 291.1188080313 291.5259611367 291.9292121353 292.3285984246 292.7241570434 293.1159246756 293.5039376536 293.8882319616 294.2688432389 294.6458067831 295.0191575537 295.3889301752 295.7551589400 296.1178778120 296.4771204297 296.8329201091 297.1853098469 297.5343223235 297.8799899062 298.2223446520 298.5614183109 298.8972423284 299.2298478485 299.5592657171 299.8855264842 300.2086604070 300.5286974530 300.8456673021 301.1595993500 301.4705227107 301.7784662190 302.0834584336 302.3855276392 302.6847018495 302.9810088100 303.2744760000 303.2775240000 303.5709911900 303.8672981505 304.1664723608 304.4685415664 304.7735337810 305.0814772893 305.3924006500 305.7063326979 306.0233025470 306.3433395930 306.6664735158 306.9927342829 307.3221521515 307.6547576716 307.9905816891 308.3296553480 308.6720100938 309.0176776765 309.3666901531 309.7190798909 310.0748795703 310.4341221880 310.7968410600 311.1630698248 311.5328424463 311.9061932169 312.2831567611 312.6637680384 313.0480623464 313.4360753244 313.8278429566 314.2234015754 314.6227878647 315.0260388633 315.4331919687 315.8442849401 316.2593559020 316.6784433478 317.1015861438 317.5288235318 317.9601951337 318.3957409547 318.8355013872 319.2795172144 319.7278296140 320.1804801624 320.6375108383 321.0989640264 321.5648825217 322.0353095333 322.5102886883 322.9898640363 323.4740800527 323.9629816435 324.4566141493 324.9550233494 325.4582554660 325.9663571686 326.4793755783 326.9973582724 327.5203532882 328.0484091280 328.5815747637 329.1198996407 329.6634336830 330.2122272978 330.7663313799 331.3257973168 331.8906769930 332.4610227952 333.0368876171 333.6183248642 334.2053884586 334.7981328444 335.3966129924 336.0008844055 336.6110031236 337.2270257287 337.8490093505 338.4770116716 339.1110909325 339.7513059377 340.3977160602 341.0503812479 341.7093620287 342.3747195163 343.0465154154 343.7248120283 344.4096722599 345.1011596237 345.7993382481 346.5042728819 347.2160289003 347.9346723113 348.6602697616 349.3928885428 350.1325965977 350.8794625264 351.6335555930 352.3949457317 353.1637035536 353.9399003529 354.7236081138 355.5148995169 356.3138479464 357.1205274964 357.9350129779 358.7573799260 359.5877046067 360.4260640240 361.2725359268 362.1271988167 362.9901319547 363.8614153689 364.7411298617 365.6293570174 366.5261792100 367.4316796102 368.3459421939 369.2690517492 370.2010938851 371.1421550387 372.0923224835 373.0516843378 374.0203295724 374.9983480189 375.9858303784 376.9828682295 377.9895540372 379.0059811611 380.0322438641 381.0684373215 382.1146576293 383.1710018136 384.2375678394 385.3144546194 386.4017620237 387.4995908887 388.6080430266 389.7272212348 390.8572293053 391.9981720347 393.1501552335 394.3132857361 395.4876714107 396.6734211694 397.8706449781 399.0794538668 400.2999599399 401.5322763867 402.7765174916 404.0327986450 405.3012363539 406.5819482527 407.8750531140 409.1806708599 410.4989225727 411.8299305066 413.1738180986 414.5307099804 415.9007319895 417.2840111811 418.6806758400 420.0908554922 421.5146809173 422.9522841601 424.4037985435 425.8693586801 427.3491004854 428.8431611901 430.3516793527 431.8747948725 433.4126490026 434.9653843629 436.5331449535 438.1160761678 439.7143248061 441.3280390893 442.9573686727 444.6024646596 446.2634796154 447.9405675819 449.6338840916 451.3435861820 453.0698324100 454.8127828670 456.5725991935 458.3494445941 460.1434838526 461.9548833476 463.7838110674 465.6304366259 467.4949312786 469.3774679377 471.2782211889 473.1973673073 475.1350842737 477.0915517911 479.0669513015 481.0614660025 483.0752808646 485.1085826482 487.1615599208 489.2344030745 491.3273043440 493.4404578241 495.5740594877 497.7283072041 499.9034007574 502.0995418647 504.3169341952 506.5557833890 508.8162970760 511.0986848952 513.4031585144 515.7299316494 518.0792200841 520.4512416906 522.8462164491 525.2643664686 527.7059160072 530.1710914933 532.6601215460 535.1732369971 537.7106709118 540.2726586106 542.8594376911 545.4712480501 548.1083319059 550.7709338203 553.4593007221 556.1736819291 558.9143291720 561.6814966171 564.4754408905 567.2964211012 570.1446988659 573.0205383325 575.9242062051 578.8559717688 581.8161069141 584.8048861628 587.8225866930 590.8694883648 593.9458737467 597.0520281413 600.1882396120 603.3547990098 606.5520000000 
Y_COORDINATES 62 float
0.0000000000 10.9220000000 21.8440000000 32.7660000000 43.6880000000 54.6100000000 65.5320000000 76.4540000000 87.3760000000 98.2980000000 109.2200000000 120.1420000000 131.0640000000 141.9860000000 152.9080000000 163.8300000000 174.7520000000 185.6740000000 196.5960000000 205.4858730000 214.3757460000 223.2656190000 232.1554920000 241.0453650000 249.9352380000 258.8251110000 267.7149840000 276.6048570000 285.4947300000 294.3846030000 303.2744760000 303.2775240000 312.1673970000 321.0572700000 329.9471430000 338.8370160000 347.7268890000 356.6167620000 365.5066350000 374.3965080000 383.2863810000 392.1762540000 401.0661270000 409.9560000000 420.8780000000 431.8000000000 442.7220000000 453.6440000000 464.5660000000 475.4880000000 486.4100000000 497.3320000000 508.2540000000 519.1760000000 530.0980000000 541.0200000000 551.9420000000 562.8640000000 573.7860000000 584.7080000000 595.6300000000 606.5520000000 
Z_COORDINATES 2 float
0.0000000000 60.6552000000 
CELL_DATA 30439
SCALARS Pressure float
LOOKUP_TABLE default
34.2664402899 34.2656026396 34.2639486700 34.2614967441 34.2582625203 34.2542592025 34.2494977715 34.2439871890 34.2377345635 34.2307452667 34.2230229914 34.2145696124 34.2053864786 34.1958279327 34.1858753185 34.1755268891 34.1647879792 34.1536701556 34.1421843490 34.1303413588 34.1181520105 34.1056271952 34.0927778175 34.0796147675 34.0661489047 34.0523910467 34.0383519606 34.0240423578 34.0094728894 33.9946541431 33.9795966406 33.9643108354 33.9488071108 33.9330957780 33.9171870734 33.9010911569 33.8848181088 33.8683779274 33.8517805256 33.8350357278 33.8181532666 33.8011427788 33.7840138016 33.7667757689 33.7494380069 33.7320097299 33.7145000365 33.6969179049 33.6792721886 33.6615716128 33.6438247693 33.6260401133 33.6082259588 33.5903904752 33.5725416831 33.5546874509 33.5368354917 33.5189933594 33.5011684465 33.4833679803 33.4655990212 33.4478684597 33.4301830141 33.4125492292 33.3949734739 33.3774619400 33.3600206407 33.3426554100 33.3253719012 33.3081755869 33.2910717584 33.2740655255 33.2571618167 33.2403653793 33.2236807800 33.2071124058 33.1906644643 33.1743409854 33.1581458222 33.1420826527 33.1261549810 33.1103661393 33.0947192899 33.0792174272 33.0638633795 33.0486598121 33.0336092290 33.0187139759 33.0039762426 32.9893980658 32.9749813324 32.9607277815 32.9466390084 32.9327164670 32.9189614731 32.9053752078 32.8919587204 32.8787129320 32.8656386383 32.8527365137 32.8400071138 32.8274508794 32.8150681396 32.8028591151 32.7908239217 32.7789625738 32.7672749873 32.7557609835 32.7444202921 32.7332525544 32.7222573268 32.7114340840 32.7007822220 32.6903010617 32.6799898516 32.6698477709 32.6598739329 32.6500673876 32.6404271250 32.6309520775 32.6216411229 32.6124930876 32.6035067484 32.5946808361 32.5860140374 32.5775049979 32.5691523246 32.5609545884 32.5529103265 32.5450180452 32.5372762219 32.5296833072 32.5222377271 32.5149378843 32.5077821601 32.5007689161 32.4938964949 32.4871632224 32.4805674083 32.4741073474 32.4677813208 32.4615875967 32.4555244531 32.4495901764 32.4437830613 32.4381014107 32.4325435354 32.4271077547 32.4217923970 32.4165924872 32.4115064749 32.4065327674 32.4016697634 32.3969158563 32.3922694352 32.3877288875 32.3832926003 32.3789589617 32.3747263628 32.3705931986 32.3665578695 32.3626187822 32.3587743511 32.3550229990 32.3513631579 32.3477932705 32.3443117900 32.3409171815 32.3376079226 32.3343825033 32.3312394272 32.3281772118 32.3251943885 32.3222895037 32.3194611185 32.3167078090 32.3140281673 32.3114208009 32.3088843332 32.3064174040 32.3040186689 32.3016868003 32.2994204884 32.2972184421 32.2950793881 32.2930020712 32.2909852541 32.2890277174 32.2871282597 32.2852856971 32.2834988637 32.2817666109 32.2800878077 32.2784613407 32.2768861134 32.2753610470 32.2738850793 32.2724571656 32.2710762776 32.2697414040 32.2684515500 32.2672057373 32.2660030040 32.2648424043 32.2637230084 32.2626439025 32.2616041885 32.2606029838 32.2596394214 32.2587126493 32.2578218308 32.2569661440 32.2561447819 32.2553569519 32.2546018760 32.2538787902 32.2531869447 32.2525256037 32.2518940448 32.2512915593 32.2507174519 32.2501710404 32.2496516555 32.2491586408 32.2486913525 32.2482491593 32.2478314420 32.2474375936 32.2470670191 32.2467191350 32.2463933696 32.2460891622 32.2458059637 32.2455432359 32.2453004512 32.2450770930 32.2448726550 32.2446866413 32.2445185663 32.2443679540 32.2442343387 32.2441172641 32.2440162834 32.2439309591 32.2438608632 32.2438055762 32.2437646880 32.2437377968 32.2437245095 32.2437244750 32.2437245095 32.2437377968 32.2437646880 32.2438055762 32.2438608632 32.2439309591 32.2440162834 32.2441172641 32.2442343387 32.2443679540 32.2445185663 32.2446866413 32.2448726550 32.2450770930 32.2453004512 32.2455432359 32.2458059637 32.2460891622 32.2463933696 32.2467191350 32.2470670191 32.2474375936 32.2478314420 32.2482491593 32.2486913525 32.2491586408 32.2496516555 32.2501710404 32.2507174519 32.2512915593 32.2518940448 32.2525256037 32.2531869447 32.2538787902 32.2546018760 32.2553569519 32.2561447819 32.2569661440 32.2578218308 32.2587126493 32.2596394214 32.2606029838 32.2616041885 32.2626439025 32.2637230084 32.2648424043 32.2660030040 32.2672057373 32.2684515500 32.2697414040 32.2710762776 32.2724571656 32.2738850793 32.2753610470 32.2768861134 32.2784613407 32.2800878077 32.2817666109 32.2834988637 32.2852856971 32.2871282597 32.2890277174 32.2909852541 32.2930020712 32.2950793881 32.2972184421 32.2994204884 32.3016868003 32.3040186689 32.3064174040 32.3088843332 32.3114208009 32.3140281673 32.3167078090 32.3194611185 32.3222895037 32.3251943885 32.3281772118 32.3312394272 32.3343825033 32.3376079226 32.3409171815 32.3443117900 32.3477932705 32.3513631579 32.3550229990 32.3587743511 32.3626187822 32.3665578695 32.3705931986 32.3747263628 32.3789589617 32.3832926003 32.3877288875 32.3922694352 32.3969158563 32.4016697634 32.4065327674 32.4115064749 32.4165924872 32.4217923970 32.4271077547 32.4325435354 32.4381014107 32.4437830613 32.4495901764 32.4555244531 32.4615875967 32.4677813208 32.4741073474 32.4805674083 32.4871632224 32.4938964949 32.5007689161 32.5077821601 32.5149378843 32.5222377271 32.5296833072 32.5372762219 32.5450180452 32.5529103265 32.5609545884 32.5691523246 32.5775049979 32.5860140374 32.5946808361 32.6035067484 32.6124930876 32.6216411229 32.6309520775 32.6404271250 32.6500673876 32.6598739329 32.6698477709 32.6799898516 32.6903010617 32.7007822220 32.7114340840 32.7222573268 32.7332525544 32.7444202921 32.7557609835 32.7672749873 32.7789625738 32.7908239217 32.8028591151 32.8150681396 32.8274508794 32.8400071138 32.8527365137 32.8656386383 32.8787129320 32.8919587204 32.9053752078 32.9189614731 32.9327164670 32.9466390084 32.9607277815 32.9749813324 32.9893980658 33.0039762426 33.0187139759 33.0336092290 33.0486598121 33.0638633795 33.0792174272 33.0947192899 33.1103661393 33.1261549810 33.1420826527 33.1581458222 33.1743409854 33.1906644643 33.2071124058 33.2236807800 33.2403653793 33.2571618167 33.2740655255 33.2910717584 33.3081755869 33.3253719012 33.3426554100 33.3600206407 33.3774619400 33.3949734739 33.4125492292 33.4301830141 33.4478684597 33.4655990212 33.4833679803 33.5011684465 33.5189933594 33.5368354917 33.5546874509 33.5725416831 33.5903904752 33.6082259588 33.6260401133 33.6438247693 33.6615716128 33.6792721886 33.6969179049 33.7145000365 33.7320097299 33.7494380069 33.7667757689 33.7840138016 33.8011427788 33.8181532666 33.8350357278 33.8517805256 33.8683779274 33.8848181088 33.9010911569 33.9171870734 33.9330957780 33.9488071108 33.9643108354 33.9795966406 33.9946541431 34.0094728894 34.0240423578 34.0383519606 34.0523910467 34.0661489047 34.0796147675 34.0927778175 34.1056271952 34.1181520105 34.1303413588 34.1421843490 34.1536701556 34.1647879792 34.1755268891 34.1858753185 34.1958279327 34.2053864786 34.2145696124 34.2230229914 34.2307452667 34.2377345635 34.2439871890 34.2494977715 34.2542592025 34.2582625203 34.2614967441 34.2639486700 34.2656026396 34.2664402899 34.2609855940 34.2601255503 34.2584270653 34.2559084417 34.2525850236 34.2484695586 34.2435725874 34.2379028568 34.2314677169 34.2242733961 34.2163271097 34.2076134813 34.1984767003 34.1889055652 34.1789024372 34.1684753801 34.1576380284 34.1464032352 34.1347834588 34.1227909268 34.1104377142 34.0977357342 34.0846967444 34.0713323566 34.0576540484 34.0436731720 34.0294009633 34.0148485492 34.0000269534 33.9849471017 33.9696198260 33.9540558672 33.9382658775 33.9222604218 33.9060499779 33.8896449369 33.8730556021 33.8562921877 33.8393648174 33.8222835218 33.8050582359 33.7876987960 33.7702149368 33.7526162876 33.7349123685 33.7171125871 33.6992262339 33.6812624788 33.6632303666 33.6451388133 33.6269966015 33.6088123771 33.5905946447 33.5723517641 33.5540919463 33.5358232504 33.5175535794 33.4992906777 33.4810421272 33.4628153451 33.4446175807 33.4264559131 33.4083372488 33.3902683198 33.3722556815 33.3543057110 33.3364246063 33.3186183843 33.3008928805 33.2832537479 33.2657064567 33.2482562938 33.2309083632 33.2136675855 33.1965386989 33.1795262594 33.1626346415 33.1458680395 33.1292304683 33.1127257650 33.0963575902 33.0801294297 33.0640445964 33.0481062321 33.0323173097 33.0166806355 33.0011988516 32.9858744380 32.9707097156 32.9557068490 32.9408678486 32.9261945744 32.9116887382 32.8973519070 32.8831855061 32.8691908221 32.8553690062 32.8417210774 32.8282479259 32.8149503164 32.8018288912 32.7888841740 32.7761165731 32.7635263844 32.7511137956 32.7388788888 32.7268216443 32.7149419438 32.7032395735 32.6917142277 32.6803655119 32.6691929461 32.6581959681 32.6473739368 32.6367261357 32.6262517762 32.6159500011 32.6058198878 32.5958604511 32.5860706456 32.5764493682 32.5669954600 32.5577077087 32.5485848500 32.5396255696 32.5308285044 32.5221922440 32.5137153319 32.5053962659 32.4972335347 32.4892256154 32.4813709727 32.4736680589 32.4661153142 32.4587111678 32.4514540389 32.4443423383 32.4373744704 32.4305488349 32.4238638293 32.4173178509 32.4109054524 32.4046251331 32.3984753105 32.3924543671 32.3865606546 32.3807924987 32.3751482024 32.3696260488 32.3642243057 32.3589412405 32.3537751224 32.3487242230 32.3437868173 32.3389611840 32.3342456069 32.3296383750 32.3251377836 32.3207421350 32.3164497389 32.3122589135 32.3081679854 32.3041752910 32.3002791762 32.2964780011 32.2927701397 32.2891539805 32.2856279261 32.2821903944 32.2788398179 32.2755746446 32.2723933381 32.2692943779 32.2662762593 32.2633374942 32.2604766109 32.2576921546 32.2549826872 32.2523467879 32.2497830531 32.2472900966 32.2448665500 32.2425110622 32.2402223002 32.2379989487 32.2358397102 32.2337433053 32.2317084726 32.2297339683 32.2278185670 32.2259610610 32.2241602603 32.2224149932 32.2207241052 32.2190864600 32.2175009385 32.2159664396 32.2144818792 32.2130461907 32.2116583247 32.2103172491 32.2090219483 32.2077714240 32.2065646944 32.2054007942 32.2042787747 32.2031977032 32.2021566634 32.2011547547 32.2001910924 32.1992648074 32.1983750460 32.1975209698 32.1967017555 32.1959165947 32.1951646939 32.1944452738 32.1937575700 32.1931008318 32.1924743228 32.1918773204 32.1913091156 32.1907690129 32.1902563300 32.1897703979 32.1893105602 32.1888761736 32.1884666070 32.1880812417 32.1877194715 32.1873807017 32.1870643498 32.1867698448 32.1864966269 32.1862441481 32.1860118709 32.1857992690 32.1856058269 32.1854310395 32.1852744121 32.1851354604 32.1850137097 32.1849086957 32.1848199634 32.1847470676 32.1846895724 32.1846470509 32.1846190855 32.1846052675 32.1846052316 32.1846052675 32.1846190855 32.1846470509 32.1846895724 32.1847470676 32.1848199634 32.1849086957 32.1850137097 32.1851354604 32.1852744121 32.1854310395 32.1856058269 32.1857992690 32.1860118709 32.1862441481 32.1864966269 32.1867698448 32.1870643498 32.1873807017 32.1877194715 32.1880812417 32.1884666070 32.1888761736 32.1893105602 32.1897703979 32.1902563300 32.1907690129 32.1913091156 32.1918773204 32.1924743228 32.1931008318 32.1937575700 32.1944452738 32.1951646939 32.1959165947 32.1967017555 32.1975209698 32.1983750460 32.1992648074 32.2001910924 32.2011547547 32.2021566634 32.2031977032 32.2042787747 32.2054007942 32.2065646944 32.2077714240 32.2090219483 32.2103172491 32.2116583247 32.2130461907 32.2144818792 32.2159664396 32.2175009385 32.2190864600 32.2207241052 32.2224149932 32.2241602603 32.2259610610 32.2278185670 32.2297339683 32.2317084726 32.2337433053 32.2358397102 32.2379989487 32.2402223002 32.2425110622 32.2448665500 32.2472900966 32.2497830531 32.2523467879 32.2549826872 32.2576921546 32.2604766109 32.2633374942 32.2662762593 32.2692943779 32.2723933381 32.2755746446 32.2788398179 32.2821903944 32.2856279261 32.2891539805 32.2927701397 32.2964780011 32.3002791762 32.3041752910 32.3081679854 32.3122589135 32.3164497389 32.3207421350 32.3251377836 32.3296383750 32.3342456069 32.3389611840 32.3437868173 32.3487242230 32.3537751224 32.3589412405 32.3642243057 32.3696260488 32.3751482024 32.3807924987 32.3865606546 32.3924543671 32.3984753105 32.4046251331 32.4109054524 32.4173178509 32.4238638293 32.4305488349 32.4373744704 32.4443423383 32.4514540389 32.4587111678 32.4661153142 32.4736680589 32.4813709727 32.4892256154 32.4972335347 32.5053962659 32.5137153319 32.5221922440 32.5308285044 32.5396255696 32.5485848500 32.5577077087 32.5669954600 32.5764493682 32.5860706456 32.5958604511 32.6058198878 32.6159500011 32.6262517762 32.6367261357 32.6473739368 32.6581959681 32.6691929461 32.6803655119 32.6917142277 32.7032395735 32.7149419438 32.7268216443 32.7388788888 32.7511137956 32.7635263844 32.7761165731 32.7888841740 32.8018288912 32.8149503164 32.8282479259 32.8417210774 32.8553690062 32.8691908221 32.8831855061 32.8973519070 32.9116887382 32.9261945744 32.9408678486 32.9557068490 32.9707097156 32.9858744380 33.0011988516 33.0166806355 33.0323173097 33.0481062321 33.0640445964 33.0801294297 33.0963575902 33.1127257650 33.1292304683 33.1458680395 33.1626346415 33.1795262594 33.1965386989 33.2136675855 33.2309083632 33.2482562938 33.2657064567 33.2832537479 33.3008928805 33.3186183843 33.3364246063 33.3543057110 33.3722556815 33.3902683198 33.4083372488 33.4264559131 33.4446175807 33.4628153451 33.4810421272 33.4992906777 33.5175535794 33.5358232504 33.5540919463 33.5723517641 33.5905946447 33.6088123771 33.6269966015 33.6451388133 33.6632303666 33.6812624788 33.6992262339 33.7171125871 33.7349123685 33.7526162876 33.7702149368 33.7876987960 33.8050582359 33.8222835218 33.8393648174 33.8562921877 33.8730556021 33.8896449369 33.9060499779 33.9222604218 33.9382658775 33.9540558672 33.9696198260 33.9849471017 34.0000269534 34.0148485492 34.0294009633 34.0436731720 34.0576540484 34.0713323566 34.0846967444 34.0977357342 34.1104377142 34.1227909268 34.1347834588 34.1464032352 34.1576380284 34.1684753801 34.1789024372 34.1889055652 34.1984767003 34.2076134813 34.2163271097 34.2242733961 34.2314677169 34.2379028568 34.2435725874 34.2484695586 34.2525850236 34.2559084417 34.2584270653 34.2601255503 34.2609855940 34.2499099009 34.2490082760 34.2472267058 34.2445824638 34.2410887666 34.2367552026 34.2315884096 34.2255932906 34.2187752593 34.2111136221 34.2029552389 34.1942786846 34.1850940587 34.1754139561 34.1652536764 34.1546322701 34.1435666217 34.1320723354 34.1201641699 34.1078562893 34.0951623655 34.0820956620 34.0686691002 34.0548953105 34.0407866726 34.0263553475 34.0116133030 33.9965723350 33.9812440841 33.9656400499 33.9497716020 33.9336499890 33.9172863459 33.9006916991 33.8838769711 33.8668529828 33.8496304556 33.8322200121 33.8146321759 33.7968773713 33.7789659217 33.7609080477 33.7427138648 33.7243933809 33.7059564929 33.6874129836 33.6687725182 33.6500446405 33.6312387692 33.6123641940 33.5934300716 33.5744454219 33.5554191239 33.5363599122 33.5172763729 33.4981769399 33.4790698918 33.4599633480 33.4408652657 33.4217834368 33.4027254850 33.3836988627 33.3647108495 33.3457685485 33.3268788856 33.3080486066 33.2892842761 33.2705922758 33.2519788036 33.2334498721 33.2150113086 33.1966687537 33.1784276619 33.1602933007 33.1422707511 33.1243649080 33.1065804805 33.0889219927 33.0713937847 33.0540000136 33.0367446549 33.0196315035 33.0026641762 32.9858461125 32.9691805772 32.9526706622 32.9363192886 32.9201292093 32.9041030111 32.8882431175 32.8725517916 32.8570311382 32.8416831072 32.8265094966 32.8115119552 32.7966919856 32.7820509477 32.7675900616 32.7533104108 32.7392129455 32.7252984860 32.7115677262 32.6980212375 32.6846594724 32.6714827688 32.6584913540 32.6456853467 32.6330647607 32.6206295066 32.6083793940 32.5963141337 32.5844333385 32.5727365254 32.5612231160 32.5498924369 32.5387437207 32.5277761618 32.5169889134 32.5063810843 32.4959517394 32.4856998996 32.4756245437 32.4657246102 32.4559990006 32.4464465821 32.4370661922 32.4278566422 32.4188167223 32.4099403270 32.4012263191 32.3926734219 32.3842802829 32.3760454817 32.3679675366 32.3600449109 32.3522760177 32.3446592243 32.3371928557 32.3298751981 32.3227045013 32.3156789813 32.3087968260 32.3020562101 32.2954553072 32.2889922886 32.2826653232 32.2764725777 32.2704122172 32.2644824057 32.2586813071 32.2530070857 32.2474579076 32.2420319414 32.2367273589 32.2315423365 32.2264750554 32.2215237034 32.2166864747 32.2119615717 32.2073472052 32.2028415952 32.1984429721 32.1941495770 32.1899596625 32.1858714936 32.1818833480 32.1779935170 32.1742003058 32.1705020342 32.1668970369 32.1633836640 32.1599602814 32.1566252712 32.1533770320 32.1502139790 32.1471345449 32.1441371793 32.1412203496 32.1383825410 32.1356222567 32.1329380178 32.1303283640 32.1277918531 32.1253270618 32.1229325849 32.1206070364 32.1183490487 32.1161572729 32.1140303792 32.1119670563 32.1099660119 32.1080259723 32.1061456826 32.1043239066 32.1025594268 32.1008510441 32.0991975780 32.0975978665 32.0960507657 32.0945551500 32.0931099120 32.0917139621 32.0903662286 32.0890656576 32.0878112128 32.0866018751 32.0854366428 32.0843145316 32.0832345737 32.0821958184 32.0811973315 32.0802381954 32.0793175087 32.0784343861 32.0775879582 32.0767773715 32.0760017878 32.0752603844 32.0745523540 32.0738769039 32.0732332565 32.0726206486 32.0720383317 32.0714855711 32.0709616466 32.0704658514 32.0699974927 32.0695558910 32.0691403798 32.0687503061 32.0683850296 32.0680439224 32.0677263695 32.0674317678 32.0671595267 32.0669090671 32.0666798218 32.0664712353 32.0662827632 32.0661138723 32.0659640404 32.0658327561 32.0657195188 32.0656238379 32.0655452336 32.0654832357 32.0654373842 32.0654072287 32.0653923285 32.0653922898 32.0653923285 32.0654072287 32.0654373842 32.0654832357 32.0655452336 32.0656238379 32.0657195188 32.0658327561 32.0659640404 32.0661138723 32.0662827632 32.0664712353 32.0666798218 32.0669090671 32.0671595267 32.0674317678 32.0677263695 32.0680439224 32.0683850296 32.0687503061 32.0691403798 32.0695558910 32.0699974927 32.0704658514 32.0709616466 32.0714855711 32.0720383317 32.0726206486 32.0732332565 32.0738769039 32.0745523540 32.0752603844 32.0760017878 32.0767773715 32.0775879582 32.0784343861 32.0793175087 32.0802381954 32.0811973315 32.0821958184 32.0832345737 32.0843145316 32.0854366428 32.0866018751 32.0878112128 32.0890656576 32.0903662286 32.0917139621 32.0931099120 32.0945551500 32.0960507657 32.0975978665 32.0991975780 32.1008510441 32.1025594268 32.1043239066 32.1061456826 32.1080259723 32.1099660119 32.1119670563 32.1140303792 32.1161572729 32.1183490487 32.1206070364 32.1229325849 32.1253270618 32.1277918531 32.1303283640 32.1329380178 32.1356222567 32.1383825410 32.1412203496 32.1441371793 32.1471345449 32.1502139790 32.1533770320 32.1566252712 32.1599602814 32.1633836640 32.1668970369 32.1705020342 32.1742003058 32.1779935170 32.1818833480 32.1858714936 32.1899596625 32.1941495770 32.1984429721 32.2028415952 32.2073472052 32.2119615717 32.2166864747 32.2215237034 32.2264750554 32.2315423365 32.2367273589 32.2420319414 32.2474579076 32.2530070857 32.2586813071 32.2644824057 32.2704122172 32.2764725777 32.2826653232 32.2889922886 32.2954553072 32.3020562101 32.3087968260 32.3156789813 32.3227045013 32.3298751981 32.3371928557 32.3446592243 32.3522760177 32.3600449109 32.3679675366 32.3760454817 32.3842802829 32.3926734219 32.4012263191 32.4099403270 32.4188167223 32.4278566422 32.4370661922 32.4464465821 32.4559990006 32.4657246102 32.4756245437 32.4856998996 32.4959517394 32.5063810843 32.5169889134 32.5277761618 32.5387437207 32.5498924369 32.5612231160 32.5727365254 32.5844333385 32.5963141337 32.6083793940 32.6206295066 32.6330647607 32.6456853467 32.6584913540 32.6714827688 32.6846594724 32.6980212375 32.7115677262 32.7252984860 32.7392129455 32.7533104108 32.7675900616 32.7820509477 32.7966919856 32.8115119552 32.8265094966 32.8416831072 32.8570311382 32.8725517916 32.8882431175 32.9041030111 32.9201292093 32.9363192886 32.9526706622 32.9691805772 32.9858461125 33.0026641762 33.0196315035 33.0367446549 33.0540000136 33.0713937847 33.0889219927 33.1065804805 33.1243649080 33.1422707511 33.1602933007 33.1784276619 33.1966687537 33.2150113086 33.2334498721 33.2519788036 33.2705922758 33.2892842761 33.3080486066 33.3268788856 33.3457685485 33.3647108495 33.3836988627 33.4027254850 33.4217834368 33.4408652657 33.4599633480 33.4790698918 33.4981769399 33.5172763729 33.5363599122 33.5554191239 33.5744454219 33.5934300716 33.6123641940 33.6312387692 33.6500446405 33.6687725182 33.6874129836 33.7059564929 33.7243933809 33.7427138648 33.7609080477 33.7789659217 33.7968773713 33.8146321759 33.8322200121 33.8496304556 33.8668529828 33.8838769711 33.9006916991 33.9172863459 33.9336499890 33.9497716020 33.9656400499 33.9812440841 33.9965723350 34.0116133030 34.0263553475 34.0407866726 34.0548953105 34.0686691002 34.0820956620 34.0951623655 34.1078562893 34.1201641699 34.1320723354 34.1435666217 34.1546322701 34.1652536764 34.1754139561 34.1850940587 34.1942786846 34.2029552389 34.2111136221 34.2187752593 34.2255932906 34.2315884096 34.2367552026 34.2410887666 34.2445824638 34.2472267058 34.2490082760 34.2499099009 34.2327953001 34.2318452586 34.2299667629 34.2271750212 34.2234780643 34.2188750540 34.2133533224 34.2068835136 34.1998320355 34.1921745752 34.1839214619 34.1750868204 34.1656886210 34.1557491116 34.1452883072 34.1343251267 34.1228775099 34.1109625459 34.0985965463 34.0857951444 34.0725733857 34.0589458080 34.0449265097 34.0305292080 34.0157672882 34.0006538450 33.9852017174 33.9694235182 33.9533316585 33.93