# vtk DataFile Version 2.0
Rectilinear grid
ASCII
DATASET RECTILINEAR_GRID
DIMENSIONS 500 62 2
X_COORDINATES 500 float
0.0000000000 1.2155350701 2.4310701403 3.6466052104 4.8621402806 6.0776753507 7.2932104208 8.5087454910 9.7242805611 10.9398156313 12.1553507014 13.3708857715 14.5864208417 15.8019559118 17.0174909820 18.2330260521 19.4485611222 20.6640961924 21.8796312625 23.0951663327 24.3107014028 25.5262364729 26.7417715431 27.9573066132 29.1728416834 30.3883767535 31.6039118236 32.8194468938 34.0349819639 35.2505170341 36.4660521042 37.6815871743 38.8971222445 40.1126573146 41.3281923848 42.5437274549 43.7592625251 44.9747975952 46.1903326653 47.4058677355 48.6214028056 49.8369378758 51.0524729459 52.2680080160 53.4835430862 54.6990781563 55.9146132265 57.1301482966 58.3456833667 59.5612184369 60.7767535070 61.9922885772 63.2078236473 64.4233587174 65.6388937876 66.8544288577 68.0699639279 69.2854989980 70.5010340681 71.7165691383 72.9321042084 74.1476392786 75.3631743487 76.5787094188 77.7942444890 79.0097795591 80.2253146293 81.4408496994 82.6563847695 83.8719198397 85.0874549098 86.3029899800 87.5185250501 88.7340601202 89.9495951904 91.1651302605 92.3806653307 93.5962004008 94.8117354709 96.0272705411 97.2428056112 98.4583406814 99.6738757515 100.8894108216 102.1049458918 103.3204809619 104.5360160321 105.7515511022 106.9670861723 108.1826212425 109.3981563126 110.6136913828 111.8292264529 113.0447615230 114.2602965932 115.4758316633 116.6913667335 117.9069018036 119.1224368737 120.3379719439 121.5535070140 122.7690420842 123.9845771543 125.2001122244 126.4156472946 127.6311823647 128.8467174349 130.0622525050 131.2777875752 132.4933226453 133.7088577154 134.9243927856 136.1399278557 137.3554629259 138.5709979960 139.7865330661 141.0020681363 142.2176032064 143.4331382766 144.6486733467 145.8642084168 147.0797434870 148.2952785571 149.5108136273 150.7263486974 151.9418837675 153.1574188377 154.3729539078 155.5884889780 156.8040240481 158.0195591182 159.2350941884 160.4506292585 161.6661643287 162.8816993988 164.0972344689 165.3127695391 166.5283046092 167.7438396794 168.9593747495 170.1749098196 171.3904448898 172.6059799599 173.8215150301 175.0370501002 176.2525851703 177.4681202405 178.6836553106 179.8991903808 181.1147254509 182.3302605210 183.5457955912 184.7613306613 185.9768657315 187.1924008016 188.4079358717 189.6234709419 190.8390060120 192.0545410822 193.2700761523 194.4856112224 195.7011462926 196.9166813627 198.1322164329 199.3477515030 200.5632865731 201.7788216433 202.9943567134 204.2098917836 205.4254268537 206.6409619238 207.8564969940 209.0720320641 210.2875671343 211.5031022044 212.7186372745 213.9341723447 215.1497074148 216.3652424850 217.5807775551 218.7963126253 220.0118476954 221.2273827655 222.4429178357 223.6584529058 224.8739879760 226.0895230461 227.3050581162 228.5205931864 229.7361282565 230.9516633267 232.1671983968 233.3827334669 234.5982685371 235.8138036072 237.0293386774 238.2448737475 239.4604088176 240.6759438878 241.8914789579 243.1070140281 244.3225490982 245.5380841683 246.7536192385 247.9691543086 249.1846893788 250.4002244489 251.6157595190 252.8312945892 254.0468296593 255.2623647295 256.4778997996 257.6934348697 258.9089699399 260.1245050100 261.3400400802 262.5555751503 263.7711102204 264.9866452906 266.2021803607 267.4177154309 268.6332505010 269.8487855711 271.0643206413 272.2798557114 273.4953907816 274.7109258517 275.9264609218 277.1419959920 278.3575310621 279.5730661323 280.7886012024 282.0041362725 283.2196713427 284.4352064128 285.6507414830 286.8662765531 288.0818116232 289.2973466934 290.5128817635 291.7284168337 292.9439519038 294.1594869739 295.3750220441 296.5905571142 297.8060921844 299.0216272545 300.2371623246 301.4526973948 302.6682324649 303.8837675351 305.0993026052 306.3148376754 307.5303727455 308.7459078156 309.9614428858 311.1769779559 312.3925130261 313.6080480962 314.8235831663 316.0391182365 317.2546533066 318.4701883768 319.6857234469 320.9012585170 322.1167935872 323.3323286573 324.5478637275 325.7633987976 326.9789338677 328.1944689379 329.4100040080 330.6255390782 331.8410741483 333.0566092184 334.2721442886 335.4876793587 336.7032144289 337.9187494990 339.1342845691 340.3498196393 341.5653547094 342.7808897796 343.9964248497 345.2119599198 346.4274949900 347.6430300601 348.8585651303 350.0741002004 351.2896352705 352.5051703407 353.7207054108 354.9362404810 356.1517755511 357.3673106212 358.5828456914 359.7983807615 361.0139158317 362.2294509018 363.4449859719 364.6605210421 365.8760561122 367.0915911824 368.3071262525 369.5226613226 370.7381963928 371.9537314629 373.1692665331 374.3848016032 375.6003366733 376.8158717435 378.0314068136 379.2469418838 380.4624769539 381.6780120240 382.8935470942 384.1090821643 385.3246172345 386.5401523046 387.7556873747 388.9712224449 390.1867575150 391.4022925852 392.6178276553 393.8333627255 395.0488977956 396.2644328657 397.4799679359 398.6955030060 399.9110380762 401.1265731463 402.3421082164 403.5576432866 404.7731783567 405.9887134269 407.2042484970 408.4197835671 409.6353186373 410.8508537074 412.0663887776 413.2819238477 414.4974589178 415.7129939880 416.9285290581 418.1440641283 419.3595991984 420.5751342685 421.7906693387 423.0062044088 424.2217394790 425.4372745491 426.6528096192 427.8683446894 429.0838797595 430.2994148297 431.5149498998 432.7304849699 433.9460200401 435.1615551102 436.3770901804 437.5926252505 438.8081603206 440.0236953908 441.2392304609 442.4547655311 443.6703006012 444.8858356713 446.1013707415 447.3169058116 448.5324408818 449.7479759519 450.9635110220 452.1790460922 453.3945811623 454.6101162325 455.8256513026 457.0411863727 458.2567214429 459.4722565130 460.6877915832 461.9033266533 463.1188617234 464.3343967936 465.5499318637 466.7654669339 467.9810020040 469.1965370741 470.4120721443 471.6276072144 472.8431422846 474.0586773547 475.2742124248 476.4897474950 477.7052825651 478.9208176353 480.1363527054 481.3518877756 482.5674228457 483.7829579158 484.9984929860 486.2140280561 487.4295631263 488.6450981964 489.8606332665 491.0761683367 492.2917034068 493.5072384770 494.7227735471 495.9383086172 497.1538436874 498.3693787575 499.5849138277 500.8004488978 502.0159839679 503.2315190381 504.4470541082 505.6625891784 506.8781242485 508.0936593186 509.3091943888 510.5247294589 511.7402645291 512.9557995992 514.1713346693 515.3868697395 516.6024048096 517.8179398798 519.0334749499 520.2490100200 521.4645450902 522.6800801603 523.8956152305 525.1111503006 526.3266853707 527.5422204409 528.7577555110 529.9732905812 531.1888256513 532.4043607214 533.6198957916 534.8354308617 536.0509659319 537.2665010020 538.4820360721 539.6975711423 540.9131062124 542.1286412826 543.3441763527 544.5597114228 545.7752464930 546.9907815631 548.2063166333 549.4218517034 550.6373867735 551.8529218437 553.0684569138 554.2839919840 555.4995270541 556.7150621242 557.9305971944 559.1461322645 560.3616673347 561.5772024048 562.7927374749 564.0082725451 565.2238076152 566.4393426854 567.6548777555 568.8704128257 570.0859478958 571.3014829659 572.5170180361 573.7325531062 574.9480881764 576.1636232465 577.3791583166 578.5946933868 579.8102284569 581.0257635271 582.2412985972 583.4568336673 584.6723687375 585.8879038076 587.1034388778 588.3189739479 589.5345090180 590.7500440882 591.9655791583 593.1811142285 594.3966492986 595.6121843687 596.8277194389 598.0432545090 599.2587895792 600.4743246493 601.6898597194 602.9053947896 604.1209298597 605.3364649299 606.5520000000 
Y_COORDINATES 62 float
0.0000000000 9.9434754098 19.8869508197 29.8304262295 39.7739016393 49.7173770492 59.6608524590 69.6043278689 79.5478032787 89.4912786885 99.4347540984 109.3782295082 119.3217049180 129.2651803279 139.2086557377 149.1521311475 159.0956065574 169.0390819672 178.9825573770 188.9260327869 198.8695081967 208.8129836066 218.7564590164 228.6999344262 238.6434098361 248.5868852459 258.5303606557 268.4738360656 278.4173114754 288.3607868852 298.3042622951 308.2477377049 318.1912131148 328.1346885246 338.0781639344 348.0216393443 357.9651147541 367.9085901639 377.8520655738 387.7955409836 397.7390163934 407.6824918033 417.6259672131 427.5694426230 437.5129180328 447.4563934426 457.3998688525 467.3433442623 477.2868196721 487.2302950820 497.1737704918 507.1172459016 517.0607213115 527.0041967213 536.9476721311 546.8911475410 556.8346229508 566.7780983607 576.7215737705 586.6650491803 596.6085245902 606.5520000000 
Z_COORDINATES 2 float
0.0000000000 60.6552000000 
CELL_DATA 30439
SCALARS Pressure float
LOOKUP_TABLE default
34.2464805074 34.2463418291 34.2460643993 34.2456480712 34.2450926237 34.2443977619 34.2435631158 34.2425882404 34.2414726147 34.2402156411 34.2388166442 34.2372748699 34.2355894846 34.2337595736 34.2317841413 34.2296621097 34.2273923178 34.2249735196 34.2224043814 34.2196834766 34.2168092935 34.2137802551 34.2105947530 34.2072501056 34.2038157550 34.2002858302 34.1966581794 34.1929309229 34.1891024405 34.1851713613 34.1811365567 34.1769971346 34.1727524367 34.1684020378 34.1639457464 34.1593836092 34.1547156271 34.1499417803 34.1450620345 34.1400763458 34.1349846648 34.1297869400 34.1244831205 34.1190731569 34.1135570027 34.1079346136 34.1022059477 34.0963709656 34.0904296305 34.0843819090 34.0782277707 34.0719671893 34.0656001425 34.0591266127 34.0525465874 34.0458600596 34.0390670281 34.0321674983 34.0251614823 34.0180489997 34.0108300778 34.0035047524 33.9960730679 33.9885350784 33.9808908474 33.9731404491 33.9652839685 33.9573215021 33.9492531581 33.9410790575 33.9327993341 33.9244141355 33.9159236230 33.9073279730 33.8986273768 33.8898220416 33.8809121909 33.8718980649 33.8627799213 33.8535580357 33.8442327024 33.8348042345 33.8252729649 33.8156392465 33.8059034531 33.7960659796 33.7861272428 33.7760876820 33.7659477590 33.7557079596 33.7453687932 33.7349307938 33.7243945207 33.7137605587 33.7030295186 33.6922020380 33.6812787818 33.6702604425 33.6591477407 33.6479414261 33.6366422773 33.6252511029 33.6137687416 33.6021960628 33.5905339674 33.5787833876 33.5669452881 33.5550206661 33.5430105516 33.5309160086 33.5187381347 33.5064780620 33.4941369574 33.4817160230 33.4692164963 33.4566396511 33.4439867973 33.4312592816 33.4184584877 33.4055858369 33.3926427878 33.3796308375 33.3665515210 33.3534064121 33.3401971235 33.3269253069 33.3135926533 33.3002008933 33.2867517974 33.2732471757 33.2596888787 33.2460787968 33.2324188611 33.2187110429 33.2049573541 33.1911598471 33.1773206151 33.1634417918 33.1495255516 33.1355741094 33.1215897208 33.1075746817 33.0935313285 33.0794620377 33.0653692259 33.0512553498 33.0371229054 33.0229744285 33.0088124939 32.9946397152 32.9804587448 32.9662722731 32.9520830285 32.9378937766 32.9237073202 32.9095264983 32.8953541862 32.8811932946 32.8670467688 32.8529175887 32.8388087677 32.8247233522 32.8106644209 32.7966350841 32.7826384828 32.7686777879 32.7547561997 32.7408769466 32.7270432845 32.7132584958 32.6995258885 32.6858487949 32.6722305710 32.6586745954 32.6451842680 32.6317630089 32.6184142577 32.6051414718 32.5919481257 32.5788377090 32.5658137261 32.5528796940 32.5400391416 32.5272956084 32.5146526434 32.5021138052 32.4896826593 32.4773627758 32.4651577244 32.4530710695 32.4411063621 32.4292672564 32.4175575037 32.4059725680 32.3945162868 32.3831923713 32.3720044774 32.3609562071 32.3500511092 32.3392926800 32.3286843628 32.3182295488 32.3079315752 32.2977937235 32.2878192152 32.2780112478 32.2683729896 32.2589075763 32.2496181081 32.2405076465 32.2315792121 32.2228357816 32.2142802856 32.2059156063 32.1977445756 32.1897699727 32.1819945223 32.1744208929 32.1670516949 32.1598894791 32.1529367352 32.1461958898 32.1396693051 32.1333592770 32.1272680336 32.1213977336 32.1157504649 32.1103282426 32.1051330080 32.1001666268 32.0954308879 32.0909275018 32.0866580998 32.0826242322 32.0788273672 32.0752688900 32.0719501017 32.0688722182 32.0660363690 32.0634435967 32.0610948562 32.0589910134 32.0571328453 32.0555210388 32.0541561902 32.0530388051 32.0521692976 32.0515479902 32.0511751135 32.0510508059 32.0511751135 32.0515479902 32.0521692976 32.0530388051 32.0541561902 32.0555210388 32.0571328453 32.0589910134 32.0610948562 32.0634435967 32.0660363690 32.0688722182 32.0719501017 32.0752688900 32.0788273672 32.0826242322 32.0866580998 32.0909275018 32.0954308879 32.1001666268 32.1051330080 32.1103282426 32.1157504649 32.1213977336 32.1272680336 32.1333592770 32.1396693051 32.1461958898 32.1529367352 32.1598894791 32.1670516949 32.1744208929 32.1819945223 32.1897699727 32.1977445756 32.2059156063 32.2142802856 32.2228357816 32.2315792121 32.2405076465 32.2496181081 32.2589075763 32.2683729896 32.2780112478 32.2878192152 32.2977937235 32.3079315752 32.3182295488 32.3286843628 32.3392926800 32.3500511092 32.3609562071 32.3720044774 32.3831923713 32.3945162868 32.4059725680 32.4175575037 32.4292672564 32.4411063621 32.4530710695 32.4651577244 32.4773627758 32.4896826593 32.5021138052 32.5146526434 32.5272956084 32.5400391416 32.5528796940 32.5658137261 32.5788377090 32.5919481257 32.6051414718 32.6184142577 32.6317630089 32.6451842680 32.6586745954 32.6722305710 32.6858487949 32.6995258885 32.7132584958 32.7270432845 32.7408769466 32.7547561997 32.7686777879 32.7826384828 32.7966350841 32.8106644209 32.8247233522 32.8388087677 32.8529175887 32.8670467688 32.8811932946 32.8953541862 32.9095264983 32.9237073202 32.9378937766 32.9520830285 32.9662722731 32.9804587448 32.9946397152 33.0088124939 33.0229744285 33.0371229054 33.0512553498 33.0653692259 33.0794620377 33.0935313285 33.1075746817 33.1215897208 33.1355741094 33.1495255516 33.1634417918 33.1773206151 33.1911598471 33.2049573541 33.2187110429 33.2324188611 33.2460787968 33.2596888787 33.2732471757 33.2867517974 33.3002008933 33.3135926533 33.3269253069 33.3401971235 33.3534064121 33.3665515210 33.3796308375 33.3926427878 33.4055858369 33.4184584877 33.4312592816 33.4439867973 33.4566396511 33.4692164963 33.4817160230 33.4941369574 33.5064780620 33.5187381347 33.5309160086 33.5430105516 33.5550206661 33.5669452881 33.5787833876 33.5905339674 33.6021960628 33.6137687416 33.6252511029 33.6366422773 33.6479414261 33.6591477407 33.6702604425 33.6812787818 33.6922020380 33.7030295186 33.7137605587 33.7243945207 33.7349307938 33.7453687932 33.7557079596 33.7659477590 33.7760876820 33.7861272428 33.7960659796 33.8059034531 33.8156392465 33.8252729649 33.8348042345 33.8442327024 33.8535580357 33.8627799213 33.8718980649 33.8809121909 33.8898220416 33.8986273768 33.9073279730 33.9159236230 33.9244141355 33.9327993341 33.9410790575 33.9492531581 33.9573215021 33.9652839685 33.9731404491 33.9808908474 33.9885350784 33.9960730679 34.0035047524 34.0108300778 34.0180489997 34.0251614823 34.0321674983 34.0390670281 34.0458600596 34.0525465874 34.0591266127 34.0656001425 34.0719671893 34.0782277707 34.0843819090 34.0904296305 34.0963709656 34.1022059477 34.1079346136 34.1135570027 34.1190731569 34.1244831205 34.1297869400 34.1349846648 34.1400763458 34.1450620345 34.1499417803 34.1547156271 34.1593836092 34.1639457464 34.1684020378 34.1727524367 34.1769971346 34.1811365567 34.1851713613 34.1891024405 34.1929309229 34.1966581794 34.2002858302 34.2038157550 34.2072501056 34.2105947530 34.2137802551 34.2168092935 34.2196834766 34.2224043814 34.2249735196 34.2273923178 34.2296621097 34.2317841413 34.2337595736 34.2355894846 34.2372748699 34.2388166442 34.2402156411 34.2414726147 34.2425882404 34.2435631158 34.2443977619 34.2450926237 34.2456480712 34.2460643993 34.2463418291 34.2464805074 34.2415654862 34.2414233980 34.2411391469 34.2407125833 34.2401434825 34.2394315460 34.2385764008 34.2375775999 34.2364346217 34.2351468676 34.2337136582 34.2321342270 34.2304077087 34.2285331389 34.2265094615 34.2243355461 34.2220102156 34.2195322846 34.2169006148 34.2141130972 34.2111667009 34.2080574356 34.2048532526 34.2015482101 34.1981406130 34.1946289826 34.1910120214 34.1872886113 34.1834578137 34.1795188695 34.1754711998 34.1713144074 34.1670482778 34.1626727879 34.1581881240 34.1535944084 34.1488917271 34.1440801384 34.1391596797 34.1341303732 34.1289922303 34.1237452552 34.1183894470 34.1129248018 34.1073513125 34.1016689697 34.0958777624 34.0899776784 34.0839687050 34.0778508297 34.0716240408 34.0652883280 34.0588436831 34.0522901006 34.0456275779 34.0388561165 34.0319757222 34.0249864059 34.0178881840 34.0106810789 34.0033651199 33.9959403437 33.9884067946 33.9807645256 33.9730135986 33.9651540852 33.9571860672 33.9491096371 33.9409248989 33.9326319684 33.9242309739 33.9157220569 33.9071053725 33.8983810902 33.8895493941 33.8806104839 33.8715645754 33.8624119007 33.8531527093 33.8437872685 33.8343158636 33.8247387992 33.8150563992 33.8052690076 33.7953769891 33.7853807297 33.7752806369 33.7650771409 33.7547706948 33.7443617752 33.7338508826 33.7232385426 33.7125253056 33.7017117479 33.6907984724 33.6797861084 33.6686753132 33.6574667717 33.6461611975 33.6347593332 33.6232619511 33.6116698534 33.5999838733 33.5882048750 33.5763337542 33.5643714391 33.5523188903 33.5401771018 33.5279471010 33.5156299497 33.5032267440 33.4907386153 33.4781667303 33.4655122916 33.4527765383 33.4399607462 33.4270662283 33.4140943349 33.4010464547 33.3879240142 33.3747284790 33.3614613534 33.3481241812 33.3347185458 33.3212460705 33.3077084188 33.2941072947 33.2804444431 33.2667216497 33.2529407413 33.2391035863 33.2252120945 33.2112682174 33.1972739485 33.1832313230 33.1691424185 33.1550093545 33.1408342926 33.1266194369 33.1123670334 33.0980793706 33.0837587788 33.0694076307 33.0550283408 33.0406233656 33.0261952031 33.0117463930 32.9972795163 32.9827971950 32.9683020920 32.9537969109 32.9392843952 32.9247673284 32.9102485336 32.8957308728 32.8812172465 32.8667105937 32.8522138906 32.8377301506 32.8232624236 32.8088137953 32.7943873865 32.7799863526 32.7656138825 32.7512731984 32.7369675543 32.7227002358 32.7084745589 32.6942938691 32.6801615404 32.6660809746 32.6520556000 32.6380888702 32.6241842633 32.6103452810 32.5965754470 32.5828783074 32.5692574297 32.5557164018 32.5422588294 32.5288883327 32.5156085413 32.5024230886 32.4893356042 32.4763497037 32.4634691008 32.4506975986 32.4380390878 32.4254975490 32.4130770592 32.4007734487 32.3885907984 32.3765329651 32.3646036659 32.3528065923 32.3411454098 32.3296237544 32.3182452285 32.3070133971 32.2959317824 32.2850038574 32.2742330790 32.2636228816 32.2531766729 32.2428978308 32.2327897015 32.2228555974 32.2130987947 32.2035225310 32.1941300034 32.1849243663 32.1759087287 32.1670861528 32.1584596513 32.1500321861 32.1418066655 32.1337859429 32.1259728142 32.1183700163 32.1109802247 32.1038060519 32.0968500454 32.0901146857 32.0836023849 32.0773154842 32.0712562528 32.0654268858 32.0598295027 32.0544661457 32.0493387778 32.0444492819 32.0397994589 32.0353910263 32.0312256167 32.0273047771 32.0236299667 32.0202025568 32.0170238286 32.0140949731 32.0114170895 32.0089911845 32.0068181716 32.0048988700 32.0032340044 32.0018242040 32.0006700020 31.9997718354 31.9991300445 31.9987448726 31.9986164657 31.9987448726 31.9991300445 31.9997718354 32.0006700020 32.0018242040 32.0032340044 32.0048988700 32.0068181716 32.0089911845 32.0114170895 32.0140949731 32.0170238286 32.0202025568 32.0236299667 32.0273047771 32.0312256167 32.0353910263 32.0397994589 32.0444492819 32.0493387778 32.0544661457 32.0598295027 32.0654268858 32.0712562528 32.0773154842 32.0836023849 32.0901146857 32.0968500454 32.1038060519 32.1109802247 32.1183700163 32.1259728142 32.1337859429 32.1418066655 32.1500321861 32.1584596513 32.1670861528 32.1759087287 32.1849243663 32.1941300034 32.2035225310 32.2130987947 32.2228555974 32.2327897015 32.2428978308 32.2531766729 32.2636228816 32.2742330790 32.2850038574 32.2959317824 32.3070133971 32.3182452285 32.3296237544 32.3411454098 32.3528065923 32.3646036659 32.3765329651 32.3885907984 32.4007734487 32.4130770592 32.4254975490 32.4380390878 32.4506975986 32.4634691008 32.4763497037 32.4893356042 32.5024230886 32.5156085413 32.5288883327 32.5422588294 32.5557164018 32.5692574297 32.5828783074 32.5965754470 32.6103452810 32.6241842633 32.6380888702 32.6520556000 32.6660809746 32.6801615404 32.6942938691 32.7084745589 32.7227002358 32.7369675543 32.7512731984 32.7656138825 32.7799863526 32.7943873865 32.8088137953 32.8232624236 32.8377301506 32.8522138906 32.8667105937 32.8812172465 32.8957308728 32.9102485336 32.9247673284 32.9392843952 32.9537969109 32.9683020920 32.9827971950 32.9972795163 33.0117463930 33.0261952031 33.0406233656 33.0550283408 33.0694076307 33.0837587788 33.0980793706 33.1123670334 33.1266194369 33.1408342926 33.1550093545 33.1691424185 33.1832313230 33.1972739485 33.2112682174 33.2252120945 33.2391035863 33.2529407413 33.2667216497 33.2804444431 33.2941072947 33.3077084188 33.3212460705 33.3347185458 33.3481241812 33.3614613534 33.3747284790 33.3879240142 33.4010464547 33.4140943349 33.4270662283 33.4399607462 33.4527765383 33.4655122916 33.4781667303 33.4907386153 33.5032267440 33.5156299497 33.5279471010 33.5401771018 33.5523188903 33.5643714391 33.5763337542 33.5882048750 33.5999838733 33.6116698534 33.6232619511 33.6347593332 33.6461611975 33.6574667717 33.6686753132 33.6797861084 33.6907984724 33.7017117479 33.7125253056 33.7232385426 33.7338508826 33.7443617752 33.7547706948 33.7650771409 33.7752806369 33.7853807297 33.7953769891 33.8052690076 33.8150563992 33.8247387992 33.8343158636 33.8437872685 33.8531527093 33.8624119007 33.8715645754 33.8806104839 33.8895493941 33.8983810902 33.9071053725 33.9157220569 33.9242309739 33.9326319684 33.9409248989 33.9491096371 33.9571860672 33.9651540852 33.9730135986 33.9807645256 33.9884067946 33.9959403437 34.0033651199 34.0106810789 34.0178881840 34.0249864059 34.0319757222 34.0388561165 34.0456275779 34.0522901006 34.0588436831 34.0652883280 34.0716240408 34.0778508297 34.0839687050 34.0899776784 34.0958777624 34.1016689697 34.1073513125 34.1129248018 34.1183894470 34.1237452552 34.1289922303 34.1341303732 34.1391596797 34.1440801384 34.1488917271 34.1535944084 34.1581881240 34.1626727879 34.1670482778 34.1713144074 34.1754711998 34.1795188695 34.1834578137 34.1872886113 34.1910120214 34.1946289826 34.1981406130 34.2015482101 34.2048532526 34.2080574356 34.2111667009 34.2141130972 34.2169006148 34.2195322846 34.2220102156 34.2243355461 34.2265094615 34.2285331389 34.2304077087 34.2321342270 34.2337136582 34.2351468676 34.2364346217 34.2375775999 34.2385764008 34.2394315460 34.2401434825 34.2407125833 34.2411391469 34.2414233980 34.2415654862 34.2316146394 34.2314655197 34.2311671836 34.2307194401 34.2301220116 34.2293745454 34.2284766308 34.2274278230 34.2262276759 34.2248757863 34.2233718526 34.2217157536 34.2199065565 34.2179425935 34.2158214722 34.2135400511 34.2110943761 34.2084795789 34.2057626971 34.2029372456 34.2000004638 34.1969506540 34.1937870024 34.1905088827 34.1871157603 34.1836071989 34.1799828681 34.1762425498 34.1723861436 34.1684136797 34.1643253381 34.1601214763 34.1558023691 34.1513682456 34.1468193018 34.1421557054 34.1373775996 34.1324851074 34.1274783350 34.1223573740 34.1171223042 34.1117731948 34.1063101049 34.1007330847 34.0950421759 34.0892374130 34.0833188243 34.0772864323 34.0711402554 34.0648803081 34.0585066022 34.0520191476 34.0454179532 34.0387030276 34.0318743797 34.0249320200 34.0178759608 34.0107062174 34.0034228084 33.9960257567 33.9885150903 33.9808908425 33.9731530532 33.9653017693 33.9573370452 33.9492589439 33.9410675372 33.9327629068 33.9243451445 33.9158143534 33.9071706479 33.8984141550 33.8895450145 33.8805633798 33.8714694185 33.8622633132 33.8529452619 33.8435154787 33.8339741945 33.8243216578 33.8145581350 33.8046839110 33.7946992904 33.7846045973 33.7744001769 33.7640863950 33.7536636396 33.7431323211 33.7324928728 33.7217457517 33.7108914393 33.6999304417 33.6888632908 33.6776905444 33.6664127872 33.6550306312 33.6435447161 33.6319557104 33.6202643118 33.6084712473 33.5965772746 33.5845831822 33.5724897897 33.5602979492 33.5480085452 33.5356224951 33.5231407504 33.5105642964 33.4978941537 33.4851313776 33.4722770598 33.4593323279 33.4462983466 33.4331763179 33.4199674815 33.4066731156 33.3932945371 33.3798331020 33.3662902063 33.3526672859 33.3389658172 33.3251873176 33.3113333458 33.2974055025 33.2834054300 33.2693348134 33.2551953806 33.2409889023 33.2267171928 33.2123821102 33.1979855562 33.1835294771 33.1690158633 33.1544467501 33.1398242175 33.1251503905 33.1104274392 33.0956575791 33.0808430711 33.0659862214 33.0510893816 33.0361549493 33.0211853671 33.0061831234 32.9911507521 32.9760908322 32.9610059883 32.9458988899 32.9307722516 32.9156288328 32.9004714374 32.8853029135 32.8701261533 32.8549440928 32.8397597112 32.8245760307 32.8093961160 32.7942230738 32.7790600525 32.7639102415 32.7487768707 32.7336632097 32.7185725672 32.7035082901 32.6884737628 32.6734724060 32.6585076763 32.6435830651 32.6287020985 32.6138683368 32.5990853732 32.5843568316 32.5696863628 32.5550776394 32.5405343499 32.5260601900 32.5116588528 32.4973341365 32.4830899356 32.4689302359 32.4548591147 32.4408807438 32.4269993967 32.4132194608 32.3995371782 32.3859569964 32.3724831669 32.3591198373 32.3458710546 32.3327407623 32.3197328008 32.3068510029 32.2940991874 32.2814811872 32.2690008409 32.2566619864 32.2444684555 32.2324240690 32.2205326331 32.2087979356 32.1972237436 32.1858138014 32.1745718287 32.1635015180 32.1526065326 32.1418905047 32.1313570324 32.1210096779 32.1108519647 32.1008873751 32.0911193479 32.0815512760 32.0721865039 32.0630283250 32.0540799797 32.0453446524 32.0368254699 32.0285254982 32.0204477406 32.0125951356 32.0049705541 31.9975767976 31.9904165958 31.9834926043 31.9768074027 31.9703634924 31.9641632947 31.9582091485 31.9525033084 31.9470479433 31.9418451340 31.9368968716 31.9322050560 31.9277714941 31.9235978982 31.9196858846 31.9160369722 31.9126525810 31.9095340311 31.9066825414 31.9040992286 31.9017851059 31.8997410825 31.8979679625 31.8964664444 31.8952371203 31.8942804752 31.8935968871 31.8931866260 31.8930498543 31.8931866260 31.8935968871 31.8942804752 31.8952371203 31.8964664444 31.8979679625 31.8997410825 31.9017851059 31.9040992286 31.9066825414 31.9095340311 31.9126525810 31.9160369722 31.9196858846 31.9235978982 31.9277714941 31.9322050560 31.9368968716 31.9418451340 31.9470479433 31.9525033084 31.9582091485 31.9641632947 31.9703634924 31.9768074027 31.9834926043 31.9904165958 31.9975767976 32.0049705541 32.0125951356 32.0204477406 32.0285254982 32.0368254699 32.0453446524 32.0540799797 32.0630283250 32.0721865039 32.0815512760 32.0911193479 32.1008873751 32.1108519647 32.1210096779 32.1313570324 32.1418905047 32.1526065326 32.1635015180 32.1745718287 32.1858138014 32.1972237436 32.2087979356 32.2205326331 32.2324240690 32.2444684555 32.2566619864 32.2690008409 32.2814811872 32.2940991874 32.3068510029 32.3197328008 32.3327407623 32.3458710546 32.3591198373 32.3724831669 32.3859569964 32.3995371782 32.4132194608 32.4269993967 32.4408807438 32.4548591147 32.4689302359 32.4830899356 32.4973341365 32.5116588528 32.5260601900 32.5405343499 32.5550776394 32.5696863628 32.5843568316 32.5990853732 32.6138683368 32.6287020985 32.6435830651 32.6585076763 32.6734724060 32.6884737628 32.7035082901 32.7185725672 32.7336632097 32.7487768707 32.7639102415 32.7790600525 32.7942230738 32.8093961160 32.8245760307 32.8397597112 32.8549440928 32.8701261533 32.8853029135 32.9004714374 32.9156288328 32.9307722516 32.9458988899 32.9610059883 32.9760908322 32.9911507521 33.0061831234 33.0211853671 33.0361549493 33.0510893816 33.0659862214 33.0808430711 33.0956575791 33.1104274392 33.1251503905 33.1398242175 33.1544467501 33.1690158633 33.1835294771 33.1979855562 33.2123821102 33.2267171928 33.2409889023 33.2551953806 33.2693348134 33.2834054300 33.2974055025 33.3113333458 33.3251873176 33.3389658172 33.3526672859 33.3662902063 33.3798331020 33.3932945371 33.4066731156 33.4199674815 33.4331763179 33.4462983466 33.4593323279 33.4722770598 33.4851313776 33.4978941537 33.5105642964 33.5231407504 33.5356224951 33.5480085452 33.5602979492 33.5724897897 33.5845831822 33.5965772746 33.6084712473 33.6202643118 33.6319557104 33.6435447161 33.6550306312 33.6664127872 33.6776905444 33.6888632908 33.6999304417 33.7108914393 33.7217457517 33.7324928728 33.7431323211 33.7536636396 33.7640863950 33.7744001769 33.7846045973 33.7946992904 33.8046839110 33.8145581350 33.8243216578 33.8339741945 33.8435154787 33.8529452619 33.8622633132 33.8714694185 33.8805633798 33.8895450145 33.8984141550 33.9071706479 33.9158143534 33.9243451445 33.9327629068 33.9410675372 33.9492589439 33.9573370452 33.9653017693 33.9731530532 33.9808908425 33.9885150903 33.9960257567 34.0034228084 34.0107062174 34.0178759608 34.0249320200 34.0318743797 34.0387030276 34.0454179532 34.0520191476 34.0585066022 34.0648803081 34.0711402554 34.0772864323 34.0833188243 34.0892374130 34.0950421759 34.1007330847 34.1063101049 34.1117731948 34.1171223042 34.1223573740 34.1274783350 34.1324851074 34.1373775996 34.1421557054 34.1468193018 34.1513682456 34.1558023691 34.1601214763 34.1643253381 34.1684136797 34.1723861436 34.1762425498 34.1799828681 34.1836071989 34.1871157603 34.1905088827 34.1937870024 34.1969506540 34.2000004638 34.2029372456 34.2057626971 34.2084795789 34.2110943761 34.2135400511 34.2158214722 34.2179425935 34.2199065565 34.2217157536 34.2233718526 34.2248757863 34.2262276759 34.2274278230 34.2284766308 34.2293745454 34.2301220116 34.2307194401 34.2311671836 34.2314655197 34.2316146394 34.2163763576 34.2162173781 34.2158990512 34.2154206284 34.2147809555 34.2139784332 34.2130109626 34.2118758708 34.2105698155 34.2090886617 34.2074273256 34.2056528560 34.2037590665 34.2017424419 34.1996003289 34.1973308696 34.1949329750 34.1924063390 34.1897512337 34.1869680101 34.1840569614 34.1810183674 34.1778525228 34.1745597497 34.1711404154 34.1675949544 34.1639238972 34.1601279048 34.1562075172 34.1521631961 34.1479953459 34.1437043255 34.1392904541 3