# vtk DataFile Version 2.0
Rectilinear grid
ASCII
DATASET RECTILINEAR_GRID
DIMENSIONS 202 66 2
X_COORDINATES 202 float
0.0000000000 8.1098571429 16.2197142857 24.3295714286 32.4394285714 40.5492857143 48.6591428571 56.7690000000 64.8788571429 72.9887142857 81.0985714286 89.2084285714 97.3182857143 105.4281428571 113.5380000000 121.6478571429 129.7577142857 137.8675714286 145.9774285714 154.0872857143 162.1971428571 170.3070000000 178.4168571429 186.5267142857 194.6365714286 202.7464285714 210.8562857143 218.9661428571 227.0760000000 235.0665107954 242.1990603897 248.5860487777 254.3054090330 259.4269279308 264.0130974760 268.1198774210 271.7973780782 275.0904717587 278.0393402971 280.6799653448 283.0445674122 285.1619990188 287.0580967472 288.7559964973 290.2764157870 291.6379065443 292.8570814749 293.9488167684 294.9264336150 295.8018607486 296.5857799998 297.2877566336 297.9163560635 298.4792483654 298.9833018666 299.4346669524 299.8388511117 300.2007861390 300.5248883111 300.8151122742 301.0749992974 301.3077204833 301.5161154606 301.7027270338 301.8698322093 302.0194699791 302.1534662011 302.2734558770 302.3809031027 302.4771189332 302.5632773797 302.6404297345 302.7095173992 302.7713833709 302.8267825291 302.8763908460 302.9208136347 302.9605929354 302.9962141293 303.0281118608 303.0566753412 303.0822530979 303.1051572267 303.1256672004 303.1440332786 303.1604795616 303.1752067242 303.1883944652 303.2002036994 303.2107785214 303.2202479634 303.2287275702 303.2363208087 303.2431203305 303.2492091023 303.2546614183 303.2595438070 303.2639158424 303.2678308716 303.2713366651 303.2744760000 303.2775240000 303.2806633349 303.2841691284 303.2880841576 303.2924561930 303.2973385817 303.3027908977 303.3088796695 303.3156791913 303.3232724298 303.3317520366 303.3412214786 303.3517963006 303.3636055348 303.3767932758 303.3915204384 303.4079667214 303.4263327996 303.4468427733 303.4697469021 303.4953246588 303.5238881392 303.5557858707 303.5914070646 303.6311863654 303.6756091540 303.7252174709 303.7806166291 303.8424826008 303.9115702655 303.9887226203 304.0748810668 304.1710968973 304.2785441230 304.3985337989 304.5325300209 304.6821677907 304.8492729662 305.0358845394 305.2442795167 305.4770007026 305.7368877258 306.0271116889 306.3512138610 306.7131488883 307.1173330476 307.5686981334 308.0727516346 308.6356439365 309.2642433664 309.9662200002 310.7501392514 311.6255663850 312.6031832316 313.6949185251 314.9140934557 316.2755842130 317.7960035027 319.4939032528 321.3900009812 323.5074325878 325.8720346552 328.5126597029 331.4615282413 334.7546219218 338.4321225790 342.5389025240 347.1250720692 352.2465909670 357.9659512223 364.3529396103 371.4854892046 379.4760000000 387.5858571429 395.6957142857 403.8055714286 411.9154285714 420.0252857143 428.1351428571 436.2450000000 444.3548571429 452.4647142857 460.5745714286 468.6844285714 476.7942857143 484.9041428571 493.0140000000 501.1238571429 509.2337142857 517.3435714286 525.4534285714 533.5632857143 541.6731428571 549.7830000000 557.8928571429 566.0027142857 574.1125714286 582.2224285714 590.3322857143 598.4421428571 606.5520000000 
Y_COORDINATES 66 float
0.0000000000 10.9220000000 21.8440000000 32.7660000000 43.6880000000 54.6100000000 65.5320000000 76.4540000000 87.3760000000 98.2980000000 109.2200000000 120.1420000000 131.0640000000 141.9860000000 152.9080000000 163.8300000000 174.7520000000 185.6740000000 196.5960000000 204.2158911429 211.8357822857 219.4556734286 227.0755645714 234.6954557143 242.3153468571 249.9352380000 257.5551291429 265.1750202857 272.7949114286 280.4148025714 288.0346937143 295.6545848571 303.2744760000 303.2775240000 310.8974151429 318.5173062857 326.1371974286 333.7570885714 341.3769797143 348.9968708571 356.6167620000 364.2366531429 371.8565442857 379.4764354286 387.0963265714 394.7162177143 402.3361088571 409.9560000000 420.8780000000 431.8000000000 442.7220000000 453.6440000000 464.5660000000 475.4880000000 486.4100000000 497.3320000000 508.2540000000 519.1760000000 530.0980000000 541.0200000000 551.9420000000 562.8640000000 573.7860000000 584.7080000000 595.6300000000 606.5520000000 
Z_COORDINATES 2 float
0.0000000000 60.6552000000 
CELL_DATA 13065
SCALARS Pressure float
LOOKUP_TABLE default
34.1214177895 34.1162436349 34.1059290174 34.0905360850 34.0701343600 34.0447954174 34.0145920713 33.9795988613 33.9398942055 33.8955638951 33.8467055422 33.7934336564 33.7358850840 33.6742246068 33.6086505325 33.5394001281 33.4667547536 33.3910445466 33.3126524934 33.2320177051 33.1496377026 33.0660694982 32.9819292555 32.8978903106 32.8146793507 32.7330705674 32.6538776178 32.5779430765 32.5066532139 32.4442532542 32.3926817943 32.3501529882 32.3152808914 32.2868140820 32.2636566325 32.2448715923 32.2296683130 32.2173866204 32.2074798781 32.1994984409 32.1930743709 32.1879078321 32.1837552855 32.1804194345 32.1777407751 32.1755905695 32.1738650486 32.1724806578 32.1713701758 32.1704795586 32.1697653802 32.1691927615 32.1687336984 32.1683657133 32.1680707682 32.1678343911 32.1676449727 32.1674932014 32.1673716093 32.1672742078 32.1671961951 32.1671337210 32.1670836990 32.1670436545 32.1670116039 32.1669859574 32.1669654404 32.1669490318 32.1669359130 32.1669254282 32.1669170519 32.1669103631 32.1669050246 32.1669007662 32.1668973715 32.1668946673 32.1668925151 32.1668908036 32.1668894441 32.1668883655 32.1668875110 32.1668868350 32.1668863012 32.1668858806 32.1668855500 32.1668852908 32.1668850884 32.1668849308 32.1668848087 32.1668847146 32.1668846426 32.1668845879 32.1668845468 32.1668845163 32.1668844940 32.1668844782 32.1668844672 32.1668844600 32.1668844556 32.1668844534 32.1668844527 32.1668844534 32.1668844556 32.1668844600 32.1668844672 32.1668844782 32.1668844940 32.1668845163 32.1668845468 32.1668845879 32.1668846426 32.1668847146 32.1668848087 32.1668849308 32.1668850884 32.1668852908 32.1668855500 32.1668858806 32.1668863012 32.1668868350 32.1668875110 32.1668883655 32.1668894441 32.1668908036 32.1668925151 32.1668946673 32.1668973715 32.1669007662 32.1669050246 32.1669103631 32.1669170519 32.1669254282 32.1669359130 32.1669490318 32.1669654404 32.1669859574 32.1670116039 32.1670436545 32.1670836990 32.1671337210 32.1671961951 32.1672742078 32.1673716093 32.1674932014 32.1676449727 32.1678343911 32.1680707682 32.1683657133 32.1687336984 32.1691927615 32.1697653802 32.1704795586 32.1713701758 32.1724806578 32.1738650486 32.1755905695 32.1777407751 32.1804194345 32.1837552855 32.1879078321 32.1930743709 32.1994984409 32.2074798781 32.2173866204 32.2296683130 32.2448715923 32.2636566325 32.2868140820 32.3152808914 32.3501529882 32.3926817943 32.4442532542 32.5066532139 32.5779430765 32.6538776178 32.7330705674 32.8146793507 32.8978903106 32.9819292555 33.0660694982 33.1496377026 33.2320177051 33.3126524934 33.3910445466 33.4667547536 33.5394001281 33.6086505325 33.6742246068 33.7358850840 33.7934336564 33.8467055422 33.8955638951 33.9398942055 33.9795988613 34.0145920713 34.0447954174 34.0701343600 34.0905360850 34.1059290174 34.1162436349 34.1214177895 34.1157516161 34.1105155459 34.1000736339 34.0844818569 34.0638042853 34.0381081279 34.0074621978 33.9719373082 33.9316083244 33.8865575824 33.8368793126 33.7826847390 33.7241075886 33.6613098020 33.5944872764 33.5238754932 33.4497548852 33.3724557935 33.2923628474 33.2099185805 33.1256260793 33.0400504419 32.9538188147 32.8676187729 32.7821948164 32.6983428304 32.6169026304 32.5387485078 32.4653189119 32.4010053317 32.3476984689 32.3037368120 32.2676772689 32.2382298305 32.2142677282 32.1948253930 32.1790870614 32.1663710437 32.1561125508 32.1478467781 32.1411932264 32.1358417157 32.1315402318 32.1280845613 32.1253095753 32.1230819739 32.1212942967 32.1198600075 32.1187094803 32.1177867340 32.1170467833 32.1164534957 32.1159778592 32.1155965867 32.1152909902 32.1150460759 32.1148498157 32.1146925621 32.1145665775 32.1144656573 32.1143848262 32.1143200951 32.1142682658 32.1142267746 32.1141935660 32.1141669928 32.1141457346 32.1141287331 32.1141151403 32.1141042767 32.1140955978 32.1140886673 32.1140831359 32.1140787236 32.1140752062 32.1140724044 32.1140701743 32.1140684010 32.1140669924 32.1140658749 32.1140649894 32.1140642890 32.1140637360 32.1140633002 32.1140629576 32.1140626891 32.1140624793 32.1140623160 32.1140621895 32.1140620920 32.1140620174 32.1140619607 32.1140619182 32.1140618866 32.1140618635 32.1140618471 32.1140618357 32.1140618282 32.1140618237 32.1140618214 32.1140618207 32.1140618214 32.1140618237 32.1140618282 32.1140618357 32.1140618471 32.1140618635 32.1140618866 32.1140619182 32.1140619607 32.1140620174 32.1140620920 32.1140621895 32.1140623160 32.1140624793 32.1140626891 32.1140629576 32.1140633002 32.1140637360 32.1140642890 32.1140649894 32.1140658749 32.1140669924 32.1140684010 32.1140701743 32.1140724044 32.1140752062 32.1140787236 32.1140831359 32.1140886673 32.1140955978 32.1141042767 32.1141151403 32.1141287331 32.1141457346 32.1141669928 32.1141935660 32.1142267746 32.1142682658 32.1143200951 32.1143848262 32.1144656573 32.1145665775 32.1146925621 32.1148498157 32.1150460759 32.1152909902 32.1155965867 32.1159778592 32.1164534957 32.1170467833 32.1177867340 32.1187094803 32.1198600075 32.1212942967 32.1230819739 32.1253095753 32.1280845613 32.1315402318 32.1358417157 32.1411932264 32.1478467781 32.1561125508 32.1663710437 32.1790870614 32.1948253930 32.2142677282 32.2382298305 32.2676772689 32.3037368120 32.3476984689 32.4010053317 32.4653189119 32.5387485078 32.6169026304 32.6983428304 32.7821948164 32.8676187729 32.9538188147 33.0400504419 33.1256260793 33.2099185805 33.2923628474 33.3724557935 33.4497548852 33.5238754932 33.5944872764 33.6613098020 33.7241075886 33.7826847390 33.8368793126 33.8865575824 33.9316083244 33.9719373082 34.0074621978 34.0381081279 34.0638042853 34.0844818569 34.1000736339 34.1105155459 34.1157516161 34.1045303646 34.0991679028 34.0884673531 34.0724729889 34.0512391407 34.0248247739 33.9932910245 33.9567012928 33.9151231889 33.8686318990 33.8173146093 33.7612756682 33.7006422340 33.6355702026 33.5662502493 33.4929138361 33.4158390419 33.3353560633 33.2518522147 33.1657762343 33.0776416742 32.9880291338 32.8975870862 32.8070310169 32.7171405023 32.6287537482 32.5427609571 32.4601019948 32.3823202762 32.3139393864 32.2571898067 32.2103372330 32.1718715342 32.1404349392 32.1148378464 32.0940579560 32.0772296008 32.0636280665 32.0526520254 32.0438060118 32.0366840370 32.0309548860 32.0263492851 32.0226489253 32.0196772072 32.0172915251 32.0153768860 32.0138406680 32.0126083361 32.0116199540 32.0108273527 32.0101918390 32.0096823429 32.0092739237 32.0089465658 32.0086842094 32.0084739708 32.0083055162 32.0081705575 32.0080624481 32.0079758588 32.0079065162 32.0078509945 32.0078065472 32.0077709728 32.0077425064 32.0077197336 32.0077015208 32.0076869596 32.0076753220 32.0076660247 32.0076586004 32.0076526749 32.0076479482 32.0076441803 32.0076411788 32.0076387899 32.0076368902 32.0076353812 32.0076341841 32.0076332355 32.0076324852 32.0076318928 32.0076314259 32.0076310590 32.0076307713 32.0076305466 32.0076303716 32.0076302361 32.0076301317 32.0076300518 32.0076299911 32.0076299454 32.0076299116 32.0076298869 32.0076298693 32.0076298571 32.0076298491 32.0076298443 32.0076298418 32.0076298410 32.0076298418 32.0076298443 32.0076298491 32.0076298571 32.0076298693 32.0076298869 32.0076299116 32.0076299454 32.0076299911 32.0076300518 32.0076301317 32.0076302361 32.0076303716 32.0076305466 32.0076307713 32.0076310590 32.0076314259 32.0076318928 32.0076324852 32.0076332355 32.0076341841 32.0076353812 32.0076368902 32.0076387899 32.0076411788 32.0076441803 32.0076479482 32.0076526749 32.0076586004 32.0076660247 32.0076753220 32.0076869596 32.0077015208 32.0077197336 32.0077425064 32.0077709728 32.0078065472 32.0078509945 32.0079065162 32.0079758588 32.0080624481 32.0081705575 32.0083055162 32.0084739708 32.0086842094 32.0089465658 32.0092739237 32.0096823429 32.0101918390 32.0108273527 32.0116199540 32.0126083361 32.0138406680 32.0153768860 32.0172915251 32.0196772072 32.0226489253 32.0263492851 32.0309548860 32.0366840370 32.0438060118 32.0526520254 32.0636280665 32.0772296008 32.0940579560 32.1148378464 32.1404349392 32.1718715342 32.2103372330 32.2571898067 32.3139393864 32.3823202762 32.4601019948 32.5427609571 32.6287537482 32.7171405023 32.8070310169 32.8975870862 32.9880291338 33.0776416742 33.1657762343 33.2518522147 33.3353560633 33.4158390419 33.4929138361 33.5662502493 33.6355702026 33.7006422340 33.7612756682 33.8173146093 33.8686318990 33.9151231889 33.9567012928 33.9932910245 34.0248247739 34.0512391407 34.0724729889 34.0884673531 34.0991679028 34.1045303646 34.0879734362 34.0824130976 34.0713105570 34.0546987044 34.0326196774 34.0051203958 33.9722503000 33.9340613327 33.8906097781 33.8419595686 33.7881867167 33.7293845745 33.6656696809 33.5971880022 33.5241214052 33.4466942190 33.3651797484 33.2799065862 33.1912645545 33.0997100661 33.0057706600 32.9100484398 32.8132221820 32.7160479200 32.6193574558 32.5240502892 32.4310778967 32.3414957530 32.2568329490 32.1822308487 32.1201959114 32.0688931353 32.0267140049 31.9922017480 31.9640727783 31.9412190770 31.9226990410 31.9077221327 31.8956309031 31.8858826476 31.8780320113 31.8717152300 31.8666362854 31.8625550006 31.8592769662 31.8566451166 31.8545327481 31.8528377739 31.8514780209 31.8503873971 31.8495127778 31.8488114829 31.8482492378 31.8477985266 31.8474372657 31.8471477350 31.8469157185 31.8467298129 31.8465808723 31.8464615622 31.8463660013 31.8462894739 31.8462281993 31.8461791465 31.8461398859 31.8461084698 31.8460833372 31.8460632372 31.8460471671 31.8460343235 31.8460240628 31.8460158693 31.8460093297 31.8460041132 31.8459999548 31.8459966423 31.8459940058 31.8459919093 31.8459902440 31.8459889227 31.8459878759 31.8459870479 31.8459863940 31.8459858788 31.8459854738 31.8459851563 31.8459849083 31.8459847153 31.8459845657 31.8459844504 31.8459843622 31.8459842952 31.8459842449 31.8459842075 31.8459841803 31.8459841608 31.8459841474 31.8459841386 31.8459841332 31.8459841305 31.8459841297 31.8459841305 31.8459841332 31.8459841386 31.8459841474 31.8459841608 31.8459841803 31.8459842075 31.8459842449 31.8459842952 31.8459843622 31.8459844504 31.8459845657 31.8459847153 31.8459849083 31.8459851563 31.8459854738 31.8459858788 31.8459863940 31.8459870479 31.8459878759 31.8459889227 31.8459902440 31.8459919093 31.8459940058 31.8459966423 31.8459999548 31.8460041132 31.8460093297 31.8460158693 31.8460240628 31.8460343235 31.8460471671 31.8460632372 31.8460833372 31.8461084698 31.8461398859 31.8461791465 31.8462281993 31.8462894739 31.8463660013 31.8464615622 31.8465808723 31.8467298129 31.8469157185 31.8471477350 31.8474372657 31.8477985266 31.8482492378 31.8488114829 31.8495127778 31.8503873971 31.8514780209 31.8528377739 31.8545327481 31.8566451166 31.8592769662 31.8625550006 31.8666362854 31.8717152300 31.8780320113 31.8858826476 31.8956309031 31.9077221327 31.9226990410 31.9412190770 31.9640727783 31.9922017480 32.0267140049 32.0688931353 32.1201959114 32.1822308487 32.2568329490 32.3414957530 32.4310778967 32.5240502892 32.6193574558 32.7160479200 32.8132221820 32.9100484398 33.0057706600 33.0997100661 33.1912645545 33.2799065862 33.3651797484 33.4466942190 33.5241214052 33.5971880022 33.6656696809 33.7293845745 33.7881867167 33.8419595686 33.8906097781 33.9340613327 33.9722503000 34.0051203958 34.0326196774 34.0546987044 34.0713105570 34.0824130976 34.0879734362 34.0663437436 34.0605120972 34.0488611111 34.0314128884 34.0081960513 33.9792428126 33.9445874406 33.9042664803 33.8583206452 33.8067981421 33.7497591604 33.6872812777 33.6194655697 33.5464432498 33.4683826911 33.3854966997 33.2980499129 33.2063661863 33.1108358050 33.0119223023 32.9101685744 32.8062018979 32.7007376651 32.5945825618 32.4886429144 32.3839147570 32.2813179281 32.1820176608 32.0878885889 32.0046970627 31.9353399414 31.8778539507 31.8305021896 31.7916964942 31.7600268779 31.7342688508 31.7133768075 31.6964695047 31.6828117976 31.6717953476 31.6629199491 31.6557763843 31.6500312178 31.6454136342 31.6417042412 31.6387256703 31.6363347626 31.6344161230 31.6328768338 31.6316421404 31.6306519414 31.6298579432 31.6292213574 31.6287110410 31.6283019969 31.6279741659 31.6277114541 31.6275009516 31.6273323036 31.6271972059 31.6270889995 31.6270023450 31.6269329615 31.6268774170 31.6268329605 31.6267973867 31.6267689280 31.6267461678 31.6267279708 31.6267134274 31.6267018087 31.6266925307 31.6266851257 31.6266792188 31.6266745100 31.6266707591 31.6266677737 31.6266653997 31.6266635140 31.6266620178 31.6266608325 31.6266598948 31.6266591544 31.6266585710 31.6266581124 31.6266577530 31.6266574721 31.6266572535 31.6266570841 31.6266569536 31.6266568537 31.6266567779 31.6266567209 31.6266566786 31.6266566477 31.6266566257 31.6266566105 31.6266566005 31.6266565945 31.6266565914 31.6266565904 31.6266565914 31.6266565945 31.6266566005 31.6266566105 31.6266566257 31.6266566477 31.6266566786 31.6266567209 31.6266567779 31.6266568537 31.6266569536 31.6266570841 31.6266572535 31.6266574721 31.6266577530 31.6266581124 31.6266585710 31.6266591544 31.6266598948 31.6266608325 31.6266620178 31.6266635140 31.6266653997 31.6266677737 31.6266707591 31.6266745100 31.6266792188 31.6266851257 31.6266925307 31.6267018087 31.6267134274 31.6267279708 31.6267461678 31.6267689280 31.6267973867 31.6268329605 31.6268774170 31.6269329615 31.6270023450 31.6270889995 31.6271972059 31.6273323036 31.6275009516 31.6277114541 31.6279741659 31.6283019969 31.6287110410 31.6292213574 31.6298579432 31.6306519414 31.6316421404 31.6328768338 31.6344161230 31.6363347626 31.6387256703 31.6417042412 31.6454136342 31.6500312178 31.6557763843 31.6629199491 31.6717953476 31.6828117976 31.6964695047 31.7133768075 31.7342688508 31.7600268779 31.7916964942 31.8305021896 31.8778539507 31.9353399414 32.0046970627 32.0878885889 32.1820176608 32.2813179281 32.3839147570 32.4886429144 32.5945825618 32.7007376651 32.8062018979 32.9101685744 33.0119223023 33.1108358050 33.2063661863 33.2980499129 33.3854966997 33.4683826911 33.5464432498 33.6194655697 33.6872812777 33.7497591604 33.8067981421 33.8583206452 33.9042664803 33.9445874406 33.9792428126 34.0081960513 34.0314128884 34.0488611111 34.0605120972 34.0663437436 34.0399444915 34.0337690247 34.0214245561 34.0029224359 33.9782769631 33.9475037149 33.9106188632 33.8676398584 33.8185875516 33.7634896558 33.7023853752 33.6353310216 33.5624064510 33.4837221758 33.3994270300 33.3097162792 33.2148400734 33.1151121447 33.0109186328 32.9027268634 32.7910936518 32.6766720649 32.5602153299 32.4425727258 32.3247536343 32.2076852842 32.0925710135 31.9807065956 31.8742532976 31.7798157581 31.7008265932 31.6351742902 31.5809677951 31.5364563875 31.5000705328 31.4704365313 31.4463740177 31.4268831957 31.4111267295 31.3984096023 31.3881589284 31.3799050885 31.3732648043 31.3679263639 31.3636369722 31.3601920777 31.3574264658 31.3552068877 31.3534260011 31.3519974146 31.3508516509 31.3499328694 31.3491962114 31.3486056549 31.3481322830 31.3477528888 31.3474488514 31.3472052331 31.3470100518 31.3468536980 31.3467284658 31.3466281760 31.3465478745 31.3464835896 31.3464321372 31.3463909653 31.3463580281 31.3463316861 31.3463106255 31.3462937934 31.3462803463 31.3462696082 31.3462610377 31.3462542012 31.3462487515 31.3462444103 31.3462409550 31.3462382074 31.3462360249 31.3462342933 31.3462329214 31.3462318362 31.3462309793 31.3462303041 31.3462297733 31.3462293572 31.3462290322 31.3462287792 31.3462285832 31.3462284321 31.3462283165 31.3462282287 31.3462281627 31.3462281138 31.3462280781 31.3462280526 31.3462280350 31.3462280234 31.3462280164 31.3462280128 31.3462280117 31.3462280128 31.3462280164 31.3462280234 31.3462280350 31.3462280526 31.3462280781 31.3462281138 31.3462281627 31.3462282287 31.3462283165 31.3462284321 31.3462285832 31.3462287792 31.3462290322 31.3462293572 31.3462297733 31.3462303041 31.3462309793 31.3462318362 31.3462329214 31.3462342933 31.3462360249 31.3462382074 31.3462409550 31.3462444103 31.3462487515 31.3462542012 31.3462610377 31.3462696082 31.3462803463 31.3462937934 31.3463106255 31.3463316861 31.3463580281 31.3463909653 31.3464321372 31.3464835896 31.3465478745 31.3466281760 31.3467284658 31.3468536980 31.3470100518 31.3472052331 31.3474488514 31.3477528888 31.3481322830 31.3486056549 31.3491962114 31.3499328694 31.3508516509 31.3519974146 31.3534260011 31.3552068877 31.3574264658 31.3601920777 31.3636369722 31.3679263639 31.3732648043 31.3799050885 31.3881589284 31.3984096023 31.4111267295 31.4268831957 31.4463740177 31.4704365313 31.5000705328 31.5364563875 31.5809677951 31.6351742902 31.7008265932 31.7798157581 31.8742532976 31.9807065956 32.0925710135 32.2076852842 32.3247536343 32.4425727258 32.5602153299 32.6766720649 32.7910936518 32.9027268634 33.0109186328 33.1151121447 33.2148400734 33.3097162792 33.3994270300 33.4837221758 33.5624064510 33.6353310216 33.7023853752 33.7634896558 33.8185875516 33.8676398584 33.9106188632 33.9475037149 33.9782769631 34.0029224359 34.0214245561 34.0337690247 34.0399444915 34.0091187812 34.0025288316 33.9893495801 33.9695814201 33.9432235130 33.9102730972 33.8707255857 33.8245757774 33.7718203143 33.7124613739 33.6465115162 33.5739995694 33.4949774429 33.4095277613 33.3177722296 33.2198806520 33.1160805367 33.0066672470 32.8920147311 32.7725870045 32.6489504565 32.5217841763 32.3918920415 32.2600503228 32.1273388304 31.9949363506 31.8641768285 31.7365340204 31.6145099351 31.5057733309 31.4144667434 31.3383173520 31.2752602848 31.2233543658 31.1808379276 31.1461537801 31.1179529402 31.0950849389 31.0765805961 31.0616336114 31.0495775598 31.0398647767 31.0320473326 31.0257602908 31.0207072644 31.0166481489 31.0133888310 31.0107726361 31.0086732740 31.0069890539 31.0056381628 31.0045548248 31.0036861870 31.0029897991 31.0024315787 31.0019841695 31.0016256195 31.0013383168 31.0011081337 31.0009237392 31.0007760464 31.0006577688 31.0005630640 31.0004872483 31.0004265667 31.0003780094 31.0003391640 31.0003080967 31.0002832582 31.0002634067 31.0002475473 31.0002348830 31.0002247751 31.0002167122 31.0002102848 31.0002051649 31.0002010897 31.0001978493 31.0001952752 31.0001932331 31.0001916151 31.0001903352 31.0001893245 31.0001885282 31.0001879022 31.0001874115 31.0001870281 31.0001867297 31.0001864986 31.0001863204 31.0001861841 31.0001860805 31.0001860027 31.0001859450 31.0001859029 31.0001858728 31.0001858521 31.0001858384 31.0001858301 31.0001858259 31.0001858246 31.0001858259 31.0001858301 31.0001858384 31.0001858521 31.0001858728 31.0001859029 31.0001859450 31.0001860027 31.0001860805 31.0001861841 31.0001863204 31.0001864986 31.0001867297 31.0001870281 31.0001874115 31.0001879022 31.0001885282 31.0001893245 31.0001903352 31.0001916151 31.0001932331 31.0001952752 31.0001978493 31.0002010897 31.0002051649 31.0002102848 31.0002167122 31.0002247751 31.0002348830 31.0002475473 31.0002634067 31.0002832582 31.0003080967 31.0003391640 31.0003780094 31.0004265667 31.0004872483 31.0005630640 31.0006577688 31.0007760464 31.0009237392 31.0011081337 31.0013383168 31.0016256195 31.0019841695 31.0024315787 31.0029897991 31.0036861870 31.0045548248 31.0056381628 31.0069890539 31.0086732740 31.0107726361 31.0133888310 31.0166481489 31.0207072644 31.0257602908 31.0320473326 31.0398647767 31.0495775598 31.0616336114 31.0765805961 31.0950849389 31.1179529402 31.1461537801 31.1808379276 31.2233543658 31.2752602848 31.3383173520 31.4144667434 31.5057733309 31.6145099351 31.7365340204 31.8641768285 31.9949363506 32.1273388304 32.2600503228 32.3918920415 32.5217841763 32.6489504565 32.7725870045 32.8920147311 33.0066672470 33.1160805367 33.2198806520 33.3177722296 33.4095277613 33.4949774429 33.5739995694 33.6465115162 33.7124613739 33.7718203143 33.8245757774 33.8707255857 33.9102730972 33.9432235130 33.9695814201 33.9893495801 34.0025288316 34.0091187812 33.9742462764 33.9671743690 33.9530253312 33.9317882505 33.9034462411 33.8679765040 33.8253510823 33.7755385774 33.7185069687 33.6542275858 33.5826802128 33.5038592743 33.4177810414 33.3244917974 33.2240769095 33.1166707556 33.0024674522 32.8817323361 32.7548142981 32.6221600389 32.4843358877 32.3420344023 32.1959281138 32.0469919805 31.8963693051 31.7453744377 31.5955068993 31.4484529575 31.3071263655 31.1805239503 31.0737192693 30.9842702476 30.9099314871 30.8485518322 30.7981491355 30.7569504860 30.7234060000 30.6961846553 30.6741190868 30.6562724248 30.6418631551 30.6302454751 30.6208891026 30.6133607416 30.6073077036 30.6024437825 30.5985372835 30.5954010009 30.5928839086 30.5908643176 30.5892442743 30.5879449933 30.5869031470 30.5860678590 30.5853982729 30.5848615901 30.5844314878 30.5840868453 30.5838107189 30.5835895183 30.5834123440 30.5832704559 30.5831568459 30.5830658955 30.5829931003 30.5829348496 30.5828882495 30.5828509803 30.5828211832 30.5827973687 30.5827783433 30.5827631507 30.5827510249 30.5827413524 30.5827336419 30.5827274998 30.5827226112 30.5827187238 30.5827156359 30.5827131860 30.5827112450 30.5827097096 30.5827084972 30.5827075419 30.5827067909 30.5827062023 30.5827057423 30.5827053844 30.5827051071 30.5827048934 30.5827047298 30.5827046056 30.5827045122 30.5827044430 30.5827043924 30.5827043564 30.5827043315 30.5827043151 30.5827043052 30.5827043001 30.5827042986 30.5827043001 30.5827043052 30.5827043151 30.5827043315 30.5827043564 30.5827043924 30.5827044430 30.5827045122 30.5827046056 30.5827047298 30.5827048934 30.5827051071 30.5827053844 30.5827057423 30.5827062023 30.5827067909 30.5827075419 30.5827084972 30.5827097096 30.5827112450 30.5827131860 30.5827156359 30.5827187238 30.5827226112 30.5827274998 30.5827336419 30.5827413524 30.5827510249 30.5827631507 30.5827783433 30.5827973687 30.5828211832 30.5828509803 30.5828882495 30.5829348496 30.5829931003 30.5830658955 30.5831568459 30.5832704559 30.5834123440 30.5835895183 30.5838107189 30.5840868453 30.5844314878 30.5848615901 30.5853982729 30.5860678590 30.5869031470 30.5879449933 30.5892442743 30.5908643176 30.5928839086 30.5954010009 30.5985372835 30.6024437825 30.6073077036 30.6133607416 30.6208891026 30.6302454751 30.6418631551 30.6562724248 30.6741190868 30.6961846553 30.7234060000 30.7569504860 30.7981491355 30.8485518322 30.9099314871 30.9842702476 31.0737192693 31.1805239503 31.3071263655 31.4484529575 31.5955068993 31.7453744377 31.8963693051 32.0469919805 32.1959281138 32.3420344023 32.4843358877 32.6221600389 32.7548142981 32.8817323361 33.0024674522 33.1166707556 33.2240769095 33.3244917974 33.4177810414 33.5038592743 33.5826802128 33.6542275858 33.7185069687 33.7755385774 33.8253510823 33.8679765040 33.9034462411 33.9317882505 33.9530253312 33.9671743690 33.9742462764 33.9357421102 33.9281252730 33.9128803353 33.8899845731 33.8594040063 33.8210940148 33.7750006160 33.7210626106 33.6592147400 33.5893919291 33.5115346436 33.4255953599 33.3315461363 33.2293872712 33.1191570356 33.0009424643 32.8748911414 32.7412236832 32.6002456545 32.4523548371 32.2981170770 32.1380480003 31.9729861677 31.8039415107 31.6321240969 31.4589633437 31.2861266430 31.1155305758 30.9505750302 30.8018837847 30.6757836162 30.5695961356 30.4809390126 30.4074475156 30.3468921125 30.2972444718 30.2567077633 30.2237219488 30.1969552269 30.1752845343 30.1577725072 30.1436427584 30.1322562702 30.1230897734 30.1157165495 30.1097897735 30.1050283111 30.1012047674 30.0981355337 30.0956725626 30.0936966147 30.0921117391 30.0908407817 30.0898217387 30.0890048059 30.0883499933 30.0878252014 30.0874046708 30.0870677347 30.0867978147 30.0865816141 30.0864084695 30.0862698308 30.0861588424 30.0860700084 30.0859989231 30.0859420549 30.0858965736 30.0858602107 30.0858311485 30.0858079307 30.0857893903 30.0857745925 30.0857627886 30.0857533789 30.0857458833 30.0857399174 30.0857351734 30.0857314050 30.0857284153 30.0857260465 30.0857241727 30.0857226932 30.0857215273 30.0857206109 30.0857198925 30.0857193313 30.0857188944 30.0857185560 30.0857182952 30.0857180956 30.0857179440 30.0857178301 30.0857177456 30.0857176839 30.0857176399 30.0857176095 30.0857175895 30.0857175774 30.0857175713 30.0857175694 30.0857175713 30.0857175774 30.0857175895 30.0857176095 30.0857176399 30.0857176839 30.0857177456 30.0857178301 30.0857179440 30.0857180956 30.0857182952 30.0857185560 30.0857188944 30.0857193313 30.0857198925 30.0857206109 30.0857215273 30.0857226932 30.0857241727 30.0857260465 30.0857284153 30.0857314050 30.0857351734 30.0857399174 30.0857458833 30.0857533789 30.0857627886 30.0857745925 30.0857893903 30.0858079307 30.0858311485 30.0858602107 30.0858965736 30.0859420549 30.0859989231 30.0860700084 30.0861588424 30.0862698308 30.0864084695 30.0865816141 30.0867978147 30.0870677347 30.0874046708 30.0878252014 30.0883499933 30.0890048059 30.0898217387 30.0908407817 30.0921117391 30.0936966147 30.0956725626 30.0981355337 30.1012047674 30.1050283111 30.1097897735 30.1157165495 30.1230897734 30.1322562702 30.1436427584 30.1577725072 30.1752845343 30.1969552269 30.2237219488 30.2567077633 30.2972444718 30.3468921125 30.4074475156 30.4809390126 30.5695961356 30.6757836162 30.8018837847 30.9505750302 31.1155305758 31.2861266430 31.4589633437 31.6321240969 31.8039415107 31.9729861677 32.1380480003 32.2981170770 32.4523548371 32.6002456545 32.7412236832 32.8748911414 33.0009424643 33.1191570356 33.2293872712 33.3315461363 33.4255953599 33.5115346436 33.5893919291 33.6592147400 33.7210626106 33.7750006160 33.8210940148 33.8594040063 33.8899845731 33.9128803353 33.9281252730 33.9357421102 33.8940572432 33.8858382209 33.8693826043 33.8446552096 33.8116037784 33.7701599877 33.7202411109 33.6617524954 33.5945909856 33.5186493827 33.4338219974 33.3400113376 33.2371359614 33.1251395281 33.0040010857 32.8737466735 32.7344624804 32.5863102166 32.4295450192 32.2643799785 32.0913143727 31.9109618090 31.7241272296 31.5318246174 31.3353042310 31.1360832311 30.9359826972 30.7371347875 30.5435269045 30.3676055623 30.217